 Entering Gaussian System, Link 0=/usr/local/g09_d01_L/g09/g09
 Initial command:
 /usr/local/g09_d01_L/g09/l1.exe "/scr/g09-uccaour/GA_freq_1/Gau-20526.inp" -scrdir="/scr/g09-uccaour/GA_freq_1/"
 Entering Link 1 = /usr/local/g09_d01_L/g09/l1.exe PID=     20528.
  
 Copyright (c) 1988,1990,1992,1993,1995,1998,2003,2009,2013,
            Gaussian, Inc.  All Rights Reserved.
  
 This is part of the Gaussian(R) 09 program.  It is based on
 the Gaussian(R) 03 system (copyright 2003, Gaussian, Inc.),
 the Gaussian(R) 98 system (copyright 1998, Gaussian, Inc.),
 the Gaussian(R) 94 system (copyright 1995, Gaussian, Inc.),
 the Gaussian 92(TM) system (copyright 1992, Gaussian, Inc.),
 the Gaussian 90(TM) system (copyright 1990, Gaussian, Inc.),
 the Gaussian 88(TM) system (copyright 1988, Gaussian, Inc.),
 the Gaussian 86(TM) system (copyright 1986, Carnegie Mellon
 University), and the Gaussian 82(TM) system (copyright 1983,
 Carnegie Mellon University). Gaussian is a federally registered
 trademark of Gaussian, Inc.
  
 This software contains proprietary and confidential information,
 including trade secrets, belonging to Gaussian, Inc.
  
 This software is provided under written license and may be
 used, copied, transmitted, or stored only in accord with that
 written license.
  
 The following legend is applicable only to US Government
 contracts under FAR:
  
                    RESTRICTED RIGHTS LEGEND
  
 Use, reproduction and disclosure by the US Government is
 subject to restrictions as set forth in subparagraphs (a)
 and (c) of the Commercial Computer Software - Restricted
 Rights clause in FAR 52.227-19.
  
 Gaussian, Inc.
 340 Quinnipiac St., Bldg. 40, Wallingford CT 06492
  
  
 ---------------------------------------------------------------
 Warning -- This program may not be used in any manner that
 competes with the business of Gaussian, Inc. or will provide
 assistance to any competitor of Gaussian, Inc.  The licensee
 of this program is prohibited from giving any competitor of
 Gaussian, Inc. access to this program.  By using this program,
 the user acknowledges that Gaussian, Inc. is engaged in the
 business of creating and licensing software in the field of
 computational chemistry and represents and warrants to the
 licensee that it is not a competitor of Gaussian, Inc. and that
 it will not use this program in any manner prohibited above.
 ---------------------------------------------------------------
  

 Cite this work as:
 Gaussian 09, Revision D.01,
 M. J. Frisch, G. W. Trucks, H. B. Schlegel, G. E. Scuseria, 
 M. A. Robb, J. R. Cheeseman, G. Scalmani, V. Barone, B. Mennucci, 
 G. A. Petersson, H. Nakatsuji, M. Caricato, X. Li, H. P. Hratchian, 
 A. F. Izmaylov, J. Bloino, G. Zheng, J. L. Sonnenberg, M. Hada, 
 M. Ehara, K. Toyota, R. Fukuda, J. Hasegawa, M. Ishida, T. Nakajima, 
 Y. Honda, O. Kitao, H. Nakai, T. Vreven, J. A. Montgomery, Jr., 
 J. E. Peralta, F. Ogliaro, M. Bearpark, J. J. Heyd, E. Brothers, 
 K. N. Kudin, V. N. Staroverov, T. Keith, R. Kobayashi, J. Normand, 
 K. Raghavachari, A. Rendell, J. C. Burant, S. S. Iyengar, J. Tomasi, 
 M. Cossi, N. Rega, J. M. Millam, M. Klene, J. E. Knox, J. B. Cross, 
 V. Bakken, C. Adamo, J. Jaramillo, R. Gomperts, R. E. Stratmann, 
 O. Yazyev, A. J. Austin, R. Cammi, C. Pomelli, J. W. Ochterski, 
 R. L. Martin, K. Morokuma, V. G. Zakrzewski, G. A. Voth, 
 P. Salvador, J. J. Dannenberg, S. Dapprich, A. D. Daniels, 
 O. Farkas, J. B. Foresman, J. V. Ortiz, J. Cioslowski, 
 and D. J. Fox, Gaussian, Inc., Wallingford CT, 2013.
 
 ******************************************
 Gaussian 09:  AM64L-G09RevD.01 24-Apr-2013
                17-Aug-2022 
 ******************************************
 %chk=GA_optfreq
 %mem=2GB
 %nproc=11
 Will use up to   11 processors via shared memory.
 ---------------------------------------------------------
 #P M062X/aug-cc-pVTZ Opt Freq(HPModes) GFINPUT IOP(6/7=3)
 ---------------------------------------------------------
 1/14=-1,18=20,19=15,26=3,38=1/1,3;
 2/9=110,12=2,17=6,18=5,40=1/2;
 3/5=16,6=1,7=10,11=2,16=1,24=10,25=1,30=1,71=1,74=-55/1,2,3;
 4//1;
 5/5=2,38=5/2;
 6/7=3,8=2,9=2,10=2,28=1/1;
 7//1,2,3,16;
 1/14=-1,18=20,19=15,26=3/3(2);
 2/9=110/2;
 99//99;
 2/9=110/2;
 3/5=16,6=1,7=10,11=2,16=1,25=1,30=1,71=1,74=-55/1,2,3;
 4/5=5,16=3,69=1/1;
 5/5=2,38=5/2;
 7//1,2,3,16;
 1/14=-1,18=20,19=15,26=3/3(-5);
 2/9=110/2;
 6/7=3,8=2,9=2,10=2,19=2,28=1/1;
 99/9=1/99;
 Leave Link    1 at Wed Aug 17 13:45:52 2022, MaxMem=   268435456 cpu:         0.7
 (Enter /usr/local/g09_d01_L/g09/l101.exe)
 ----------------------------------------------------------------------
 Glyoxylic Acid. Optimize structure and perform frequency analysis. Str
 ucture optimized at M062X/aug-cc-pVTZ level.
 ----------------------------------------------------------------------
 Symbolic Z-matrix:
 Charge =  0 Multiplicity = 1
 O                    -0.1395   -1.79364   0. 
 O                     1.32171   0.45772   0. 
 O                    -0.58779   1.6174    0. 
 C                    -0.74312  -0.75981   0. 
 C                     0.        0.57996   0. 
 H                    -1.83936  -0.68537   0. 
 H                     1.54274  -0.48742   0. 
 
 NAtoms=      7 NQM=        7 NQMF=       0 NMMI=      0 NMMIF=      0
                NMic=       0 NMicF=      0.
                    Isotopes and Nuclear Properties:
 (Nuclear quadrupole moments (NQMom) in fm**2, nuclear magnetic moments (NMagM)
  in nuclear magnetons)

  Atom         1           2           3           4           5           6           7
 IAtWgt=          16          16          16          12          12           1           1
 AtmWgt=  15.9949146  15.9949146  15.9949146  12.0000000  12.0000000   1.0078250   1.0078250
 NucSpn=           0           0           0           0           0           1           1
 AtZEff=   0.0000000   0.0000000   0.0000000   0.0000000   0.0000000   0.0000000   0.0000000
 NQMom=    0.0000000   0.0000000   0.0000000   0.0000000   0.0000000   0.0000000   0.0000000
 NMagM=    0.0000000   0.0000000   0.0000000   0.0000000   0.0000000   2.7928460   2.7928460
 AtZNuc=   8.0000000   8.0000000   8.0000000   6.0000000   6.0000000   1.0000000   1.0000000
 Leave Link  101 at Wed Aug 17 13:45:52 2022, MaxMem=   268435456 cpu:         1.7
 (Enter /usr/local/g09_d01_L/g09/l103.exe)

 GradGradGradGradGradGradGradGradGradGradGradGradGradGradGradGradGradGrad
 Berny optimization.
 Initialization pass.
                           ----------------------------
                           !    Initial Parameters    !
                           ! (Angstroms and Degrees)  !
 --------------------------                            --------------------------
 ! Name  Definition              Value          Derivative Info.                !
 --------------------------------------------------------------------------------
 ! R1    R(1,4)                  1.1971         estimate D2E/DX2                !
 ! R2    R(2,5)                  1.3274         estimate D2E/DX2                !
 ! R3    R(2,7)                  0.9706         estimate D2E/DX2                !
 ! R4    R(3,5)                  1.1924         estimate D2E/DX2                !
 ! R5    R(4,5)                  1.5321         estimate D2E/DX2                !
 ! R6    R(4,6)                  1.0988         estimate D2E/DX2                !
 ! A1    A(5,2,7)              108.4462         estimate D2E/DX2                !
 ! A2    A(1,4,5)              120.7054         estimate D2E/DX2                !
 ! A3    A(1,4,6)              124.1641         estimate D2E/DX2                !
 ! A4    A(5,4,6)              115.1305         estimate D2E/DX2                !
 ! A5    A(2,5,3)              124.8191         estimate D2E/DX2                !
 ! A6    A(2,5,4)              113.7313         estimate D2E/DX2                !
 ! A7    A(3,5,4)              121.4496         estimate D2E/DX2                !
 ! D1    D(7,2,5,3)            180.0            estimate D2E/DX2                !
 ! D2    D(7,2,5,4)              0.0            estimate D2E/DX2                !
 ! D3    D(1,4,5,2)              0.0            estimate D2E/DX2                !
 ! D4    D(1,4,5,3)            180.0            estimate D2E/DX2                !
 ! D5    D(6,4,5,2)            180.0            estimate D2E/DX2                !
 ! D6    D(6,4,5,3)              0.0            estimate D2E/DX2                !
 --------------------------------------------------------------------------------
 Trust Radius=3.00D-01 FncErr=1.00D-07 GrdErr=1.00D-06
 Number of steps in this run=     29 maximum allowed number of steps=    100.
 GradGradGradGradGradGradGradGradGradGradGradGradGradGradGradGradGradGrad

 Leave Link  103 at Wed Aug 17 13:45:52 2022, MaxMem=   268435456 cpu:         0.1
 (Enter /usr/local/g09_d01_L/g09/l202.exe)
                          Input orientation:                          
 ---------------------------------------------------------------------
 Center     Atomic      Atomic             Coordinates (Angstroms)
 Number     Number       Type             X           Y           Z
 ---------------------------------------------------------------------
      1          8           0       -0.139503   -1.793637    0.000000
      2          8           0        1.321712    0.457721    0.000000
      3          8           0       -0.587792    1.617402    0.000000
      4          6           0       -0.743119   -0.759810    0.000000
      5          6           0        0.000000    0.579962    0.000000
      6          1           0       -1.839357   -0.685366    0.000000
      7          1           0        1.542735   -0.487424    0.000000
 ---------------------------------------------------------------------
                    Distance matrix (angstroms):
                    1          2          3          4          5
     1  O    0.000000
     2  O    2.683983   0.000000
     3  O    3.440371   2.234069   0.000000
     4  C    1.197143   2.397063   2.382281   0.000000
     5  C    2.377695   1.327353   1.192385   1.532062   0.000000
     6  H    2.029228   3.361399   2.620907   1.098763   2.232552
     7  H    2.129816   0.970644   2.994902   2.302026   1.875992
                    6          7
     6  H    0.000000
     7  H    3.387879   0.000000
 Stoichiometry    C2H2O3
 Framework group  CS[SG(C2H2O3)]
 Deg. of freedom    11
 Full point group                 CS      NOp   2
 Largest Abelian subgroup         CS      NOp   2
 Largest concise Abelian subgroup C1      NOp   1
                         Standard orientation:                         
 ---------------------------------------------------------------------
 Center     Atomic      Atomic             Coordinates (Angstroms)
 Number     Number       Type             X           Y           Z
 ---------------------------------------------------------------------
      1          8           0       -0.139503   -1.793637    0.000000
      2          8           0        1.321712    0.457721    0.000000
      3          8           0       -0.587792    1.617402    0.000000
      4          6           0       -0.743119   -0.759810    0.000000
      5          6           0        0.000000    0.579962    0.000000
      6          1           0       -1.839357   -0.685366    0.000000
      7          1           0        1.542735   -0.487424    0.000000
 ---------------------------------------------------------------------
 Rotational constants (GHZ):     11.0624304      4.6433622      3.2705685
 Leave Link  202 at Wed Aug 17 13:45:52 2022, MaxMem=   268435456 cpu:         0.0
 (Enter /usr/local/g09_d01_L/g09/l301.exe)
 Standard basis: Aug-CC-pVTZ (5D, 7F)
 Ernie: Thresh=  0.10000D-02 Tol=  0.10000D-05 Strict=F.
 Ernie:  15 primitive shells out of 172 were deleted.
 AO basis set in the form of general basis input (Overlap normalization):
      1 0
 S   7 1.00       0.000000000000
      0.1533000000D+05  0.5198089434D-03
      0.2299000000D+04  0.4020256215D-02
      0.5224000000D+03  0.2071282673D-01
      0.1473000000D+03  0.8101055358D-01
      0.4755000000D+02  0.2359629851D+00
      0.1676000000D+02  0.4426534455D+00
      0.6207000000D+01  0.3570644227D+00
 S   6 1.00       0.000000000000
      0.5224000000D+03 -0.4421150084D-04
      0.1473000000D+03 -0.1225910413D-02
      0.4755000000D+02 -0.1055177248D-01
      0.1676000000D+02 -0.6744526326D-01
      0.6207000000D+01 -0.1711986073D+00
      0.6882000000D+00  0.1073298561D+01
 S   1 1.00       0.000000000000
      0.1752000000D+01  0.1000000000D+01
 S   1 1.00       0.000000000000
      0.2384000000D+00  0.1000000000D+01
 S   1 1.00       0.000000000000
      0.7376000000D-01  0.1000000000D+01
 P   3 1.00       0.000000000000
      0.3446000000D+02  0.4116348957D-01
      0.7749000000D+01  0.2577628359D+00
      0.2280000000D+01  0.8024192744D+00
 P   1 1.00       0.000000000000
      0.7156000000D+00  0.1000000000D+01
 P   1 1.00       0.000000000000
      0.2140000000D+00  0.1000000000D+01
 P   1 1.00       0.000000000000
      0.5974000000D-01  0.1000000000D+01
 D   1 1.00       0.000000000000
      0.2314000000D+01  0.1000000000D+01
 D   1 1.00       0.000000000000
      0.6450000000D+00  0.1000000000D+01
 D   1 1.00       0.000000000000
      0.2140000000D+00  0.1000000000D+01
 F   1 1.00       0.000000000000
      0.1428000000D+01  0.1000000000D+01
 F   1 1.00       0.000000000000
      0.5000000000D+00  0.1000000000D+01
 ****
      2 0
 S   7 1.00       0.000000000000
      0.1533000000D+05  0.5198089434D-03
      0.2299000000D+04  0.4020256215D-02
      0.5224000000D+03  0.2071282673D-01
      0.1473000000D+03  0.8101055358D-01
      0.4755000000D+02  0.2359629851D+00
      0.1676000000D+02  0.4426534455D+00
      0.6207000000D+01  0.3570644227D+00
 S   6 1.00       0.000000000000
      0.5224000000D+03 -0.4421150084D-04
      0.1473000000D+03 -0.1225910413D-02
      0.4755000000D+02 -0.1055177248D-01
      0.1676000000D+02 -0.6744526326D-01
      0.6207000000D+01 -0.1711986073D+00
      0.6882000000D+00  0.1073298561D+01
 S   1 1.00       0.000000000000
      0.1752000000D+01  0.1000000000D+01
 S   1 1.00       0.000000000000
      0.2384000000D+00  0.1000000000D+01
 S   1 1.00       0.000000000000
      0.7376000000D-01  0.1000000000D+01
 P   3 1.00       0.000000000000
      0.3446000000D+02  0.4116348957D-01
      0.7749000000D+01  0.2577628359D+00
      0.2280000000D+01  0.8024192744D+00
 P   1 1.00       0.000000000000
      0.7156000000D+00  0.1000000000D+01
 P   1 1.00       0.000000000000
      0.2140000000D+00  0.1000000000D+01
 P   1 1.00       0.000000000000
      0.5974000000D-01  0.1000000000D+01
 D   1 1.00       0.000000000000
      0.2314000000D+01  0.1000000000D+01
 D   1 1.00       0.000000000000
      0.6450000000D+00  0.1000000000D+01
 D   1 1.00       0.000000000000
      0.2140000000D+00  0.1000000000D+01
 F   1 1.00       0.000000000000
      0.1428000000D+01  0.1000000000D+01
 F   1 1.00       0.000000000000
      0.5000000000D+00  0.1000000000D+01
 ****
      3 0
 S   7 1.00       0.000000000000
      0.1533000000D+05  0.5198089434D-03
      0.2299000000D+04  0.4020256215D-02
      0.5224000000D+03  0.2071282673D-01
      0.1473000000D+03  0.8101055358D-01
      0.4755000000D+02  0.2359629851D+00
      0.1676000000D+02  0.4426534455D+00
      0.6207000000D+01  0.3570644227D+00
 S   6 1.00       0.000000000000
      0.5224000000D+03 -0.4421150084D-04
      0.1473000000D+03 -0.1225910413D-02
      0.4755000000D+02 -0.1055177248D-01
      0.1676000000D+02 -0.6744526326D-01
      0.6207000000D+01 -0.1711986073D+00
      0.6882000000D+00  0.1073298561D+01
 S   1 1.00       0.000000000000
      0.1752000000D+01  0.1000000000D+01
 S   1 1.00       0.000000000000
      0.2384000000D+00  0.1000000000D+01
 S   1 1.00       0.000000000000
      0.7376000000D-01  0.1000000000D+01
 P   3 1.00       0.000000000000
      0.3446000000D+02  0.4116348957D-01
      0.7749000000D+01  0.2577628359D+00
      0.2280000000D+01  0.8024192744D+00
 P   1 1.00       0.000000000000
      0.7156000000D+00  0.1000000000D+01
 P   1 1.00       0.000000000000
      0.2140000000D+00  0.1000000000D+01
 P   1 1.00       0.000000000000
      0.5974000000D-01  0.1000000000D+01
 D   1 1.00       0.000000000000
      0.2314000000D+01  0.1000000000D+01
 D   1 1.00       0.000000000000
      0.6450000000D+00  0.1000000000D+01
 D   1 1.00       0.000000000000
      0.2140000000D+00  0.1000000000D+01
 F   1 1.00       0.000000000000
      0.1428000000D+01  0.1000000000D+01
 F   1 1.00       0.000000000000
      0.5000000000D+00  0.1000000000D+01
 ****
      4 0
 S   7 1.00       0.000000000000
      0.8236000000D+04  0.5419783203D-03
      0.1235000000D+04  0.4192873817D-02
      0.2808000000D+03  0.2152216205D-01
      0.7927000000D+02  0.8353432195D-01
      0.2559000000D+02  0.2395828457D+00
      0.8997000000D+01  0.4428528419D+00
      0.3319000000D+01  0.3517995618D+00
 S   6 1.00       0.000000000000
      0.2808000000D+03 -0.5949224937D-04
      0.7927000000D+02 -0.1148158310D-02
      0.2559000000D+02 -0.1001913745D-01
      0.8997000000D+01 -0.6121949230D-01
      0.3319000000D+01 -0.1732698541D+00
      0.3643000000D+00  0.1072915192D+01
 S   1 1.00       0.000000000000
      0.9059000000D+00  0.1000000000D+01
 S   1 1.00       0.000000000000
      0.1285000000D+00  0.1000000000D+01
 S   1 1.00       0.000000000000
      0.4402000000D-01  0.1000000000D+01
 P   3 1.00       0.000000000000
      0.1871000000D+02  0.3942638716D-01
      0.4133000000D+01  0.2440889849D+00
      0.1200000000D+01  0.8154920089D+00
 P   1 1.00       0.000000000000
      0.3827000000D+00  0.1000000000D+01
 P   1 1.00       0.000000000000
      0.1209000000D+00  0.1000000000D+01
 P   1 1.00       0.000000000000
      0.3569000000D-01  0.1000000000D+01
 D   1 1.00       0.000000000000
      0.1097000000D+01  0.1000000000D+01
 D   1 1.00       0.000000000000
      0.3180000000D+00  0.1000000000D+01
 D   1 1.00       0.000000000000
      0.1000000000D+00  0.1000000000D+01
 F   1 1.00       0.000000000000
      0.7610000000D+00  0.1000000000D+01
 F   1 1.00       0.000000000000
      0.2680000000D+00  0.1000000000D+01
 ****
      5 0
 S   7 1.00       0.000000000000
      0.8236000000D+04  0.5419783203D-03
      0.1235000000D+04  0.4192873817D-02
      0.2808000000D+03  0.2152216205D-01
      0.7927000000D+02  0.8353432195D-01
      0.2559000000D+02  0.2395828457D+00
      0.8997000000D+01  0.4428528419D+00
      0.3319000000D+01  0.3517995618D+00
 S   6 1.00       0.000000000000
      0.2808000000D+03 -0.5949224937D-04
      0.7927000000D+02 -0.1148158310D-02
      0.2559000000D+02 -0.1001913745D-01
      0.8997000000D+01 -0.6121949230D-01
      0.3319000000D+01 -0.1732698541D+00
      0.3643000000D+00  0.1072915192D+01
 S   1 1.00       0.000000000000
      0.9059000000D+00  0.1000000000D+01
 S   1 1.00       0.000000000000
      0.1285000000D+00  0.1000000000D+01
 S   1 1.00       0.000000000000
      0.4402000000D-01  0.1000000000D+01
 P   3 1.00       0.000000000000
      0.1871000000D+02  0.3942638716D-01
      0.4133000000D+01  0.2440889849D+00
      0.1200000000D+01  0.8154920089D+00
 P   1 1.00       0.000000000000
      0.3827000000D+00  0.1000000000D+01
 P   1 1.00       0.000000000000
      0.1209000000D+00  0.1000000000D+01
 P   1 1.00       0.000000000000
      0.3569000000D-01  0.1000000000D+01
 D   1 1.00       0.000000000000
      0.1097000000D+01  0.1000000000D+01
 D   1 1.00       0.000000000000
      0.3180000000D+00  0.1000000000D+01
 D   1 1.00       0.000000000000
      0.1000000000D+00  0.1000000000D+01
 F   1 1.00       0.000000000000
      0.7610000000D+00  0.1000000000D+01
 F   1 1.00       0.000000000000
      0.2680000000D+00  0.1000000000D+01
 ****
      6 0
 S   3 1.00       0.000000000000
      0.3387000000D+02  0.2549486323D-01
      0.5095000000D+01  0.1903627659D+00
      0.1159000000D+01  0.8521620222D+00
 S   1 1.00       0.000000000000
      0.3258000000D+00  0.1000000000D+01
 S   1 1.00       0.000000000000
      0.1027000000D+00  0.1000000000D+01
 S   1 1.00       0.000000000000
      0.2526000000D-01  0.1000000000D+01
 P   1 1.00       0.000000000000
      0.1407000000D+01  0.1000000000D+01
 P   1 1.00       0.000000000000
      0.3880000000D+00  0.1000000000D+01
 P   1 1.00       0.000000000000
      0.1020000000D+00  0.1000000000D+01
 D   1 1.00       0.000000000000
      0.1057000000D+01  0.1000000000D+01
 D   1 1.00       0.000000000000
      0.2470000000D+00  0.1000000000D+01
 ****
      7 0
 S   3 1.00       0.000000000000
      0.3387000000D+02  0.2549486323D-01
      0.5095000000D+01  0.1903627659D+00
      0.1159000000D+01  0.8521620222D+00
 S   1 1.00       0.000000000000
      0.3258000000D+00  0.1000000000D+01
 S   1 1.00       0.000000000000
      0.1027000000D+00  0.1000000000D+01
 S   1 1.00       0.000000000000
      0.2526000000D-01  0.1000000000D+01
 P   1 1.00       0.000000000000
      0.1407000000D+01  0.1000000000D+01
 P   1 1.00       0.000000000000
      0.3880000000D+00  0.1000000000D+01
 P   1 1.00       0.000000000000
      0.1020000000D+00  0.1000000000D+01
 D   1 1.00       0.000000000000
      0.1057000000D+01  0.1000000000D+01
 D   1 1.00       0.000000000000
      0.2470000000D+00  0.1000000000D+01
 ****

 There are   221 symmetry adapted cartesian basis functions of A'  symmetry.
 There are   104 symmetry adapted cartesian basis functions of A"  symmetry.
 There are   182 symmetry adapted basis functions of A'  symmetry.
 There are    94 symmetry adapted basis functions of A"  symmetry.
   276 basis functions,   414 primitive gaussians,   325 cartesian basis functions
    19 alpha electrons       19 beta electrons
       nuclear repulsion energy       163.9173991914 Hartrees.
 IExCor= 4336 DFT=T Ex+Corr=M062X ExCW=0 ScaHFX=  0.540000
 ScaDFX=  1.000000  1.000000  1.000000  1.000000 ScalE2=  1.000000  1.000000
 IRadAn=      0 IRanWt=     -1 IRanGd=            0 ICorTp=0 IEmpDi=  4
 NAtoms=    7 NActive=    7 NUniq=    7 SFac= 1.00D+00 NAtFMM=   60 NAOKFM=F Big=F
 Integral buffers will be    131072 words long.
 Raffenetti 2 integral format.
 Two-electron integral symmetry is turned on.
 Leave Link  301 at Wed Aug 17 13:45:52 2022, MaxMem=   268435456 cpu:         0.6
 (Enter /usr/local/g09_d01_L/g09/l302.exe)
 NPDir=0 NMtPBC=     1 NCelOv=     1 NCel=       1 NClECP=     1 NCelD=      1
         NCelK=      1 NCelE2=     1 NClLst=     1 CellRange=     0.0.
 One-electron integrals computed using PRISM.
 NBasis=   276 RedAO= T EigKep=  3.48D-05  NBF=   182    94
 NBsUse=   276 1.00D-06 EigRej= -1.00D+00 NBFU=   182    94
 Precomputing XC quadrature grid using
 IXCGrd= 4 IRadAn=           0 IRanWt=          -1 IRanGd=           0 AccXCQ= 0.00D+00.
 Generated NRdTot=       0 NPtTot=           0 NUsed=           0 NTot=          32
 NSgBfM=   325   325   325   325   325 MxSgAt=     7 MxSgA2=     7.
 Leave Link  302 at Wed Aug 17 13:45:53 2022, MaxMem=   268435456 cpu:         4.2
 (Enter /usr/local/g09_d01_L/g09/l303.exe)
 DipDrv:  MaxL=1.
 Leave Link  303 at Wed Aug 17 13:45:53 2022, MaxMem=   268435456 cpu:         1.5
 (Enter /usr/local/g09_d01_L/g09/l401.exe)
 ExpMin= 2.53D-02 ExpMax= 1.53D+04 ExpMxC= 5.22D+02 IAcc=3 IRadAn=         5 AccDes= 0.00D+00
 Harris functional with IExCor= 1009 and IRadAn=       5 diagonalized for initial guess.
 HarFok:  IExCor= 1009 AccDes= 0.00D+00 IRadAn=         5 IDoV= 1 UseB2=F ITyADJ=14
 ICtDFT=  3500011 ScaDFX=  1.000000  1.000000  1.000000  1.000000
 FoFCou: FMM=F IPFlag=           0 FMFlag=      100000 FMFlg1=           0
         NFxFlg=           0 DoJE=T BraDBF=F KetDBF=T FulRan=T
         wScrn=  0.000000 ICntrl=     500 IOpCl=  0 I1Cent=   200000004 NGrid=           0
         NMat0=    1 NMatS0=      1 NMatT0=    0 NMatD0=    1 NMtDS0=    0 NMtDT0=    0
 Petite list used in FoFCou.
 Harris En= -302.928650137066    
 JPrj=0 DoOrth=F DoCkMO=F.
 Initial guess orbital symmetries:
       Occupied  (A') (A') (A') (A') (A') (A') (A') (A') (A') (A')
                 (A') (A') (A') (A") (A') (A") (A') (A") (A')
       Virtual   (A") (A") (A') (A') (A') (A") (A') (A') (A') (A")
                 (A') (A') (A") (A') (A') (A') (A') (A") (A') (A')
                 (A') (A") (A') (A') (A") (A') (A') (A") (A') (A')
                 (A') (A') (A") (A') (A") (A') (A") (A') (A') (A')
                 (A") (A') (A') (A') (A") (A') (A") (A') (A') (A')
                 (A') (A") (A") (A') (A') (A') (A") (A') (A") (A')
                 (A") (A') (A") (A') (A") (A') (A') (A") (A') (A')
                 (A") (A') (A') (A") (A') (A') (A') (A') (A") (A")
                 (A') (A") (A') (A") (A') (A') (A") (A') (A') (A")
                 (A') (A') (A") (A') (A') (A") (A') (A') (A") (A")
                 (A') (A") (A') (A') (A") (A') (A') (A') (A') (A')
                 (A") (A') (A") (A') (A') (A") (A') (A') (A') (A")
                 (A") (A') (A") (A") (A') (A') (A') (A') (A") (A')
                 (A") (A') (A') (A") (A') (A") (A") (A') (A') (A')
                 (A') (A') (A") (A') (A') (A") (A") (A') (A") (A")
                 (A') (A') (A") (A') (A") (A') (A") (A') (A') (A")
                 (A') (A') (A') (A") (A") (A') (A') (A') (A') (A")
                 (A') (A') (A') (A") (A") (A") (A') (A') (A') (A")
                 (A") (A') (A') (A") (A') (A') (A") (A') (A") (A')
                 (A") (A') (A") (A') (A') (A') (A") (A') (A') (A")
                 (A') (A") (A') (A') (A") (A') (A") (A') (A') (A')
                 (A') (A') (A') (A') (A') (A') (A") (A') (A") (A')
                 (A") (A") (A') (A") (A') (A") (A') (A") (A") (A')
                 (A") (A') (A") (A') (A") (A") (A') (A') (A") (A')
                 (A') (A") (A') (A") (A') (A') (A') (A') (A') (A')
                 (A') (A') (A') (A') (A') (A') (A')
 The electronic state of the initial guess is 1-A'.
 Leave Link  401 at Wed Aug 17 13:45:54 2022, MaxMem=   268435456 cpu:        11.1
 (Enter /usr/local/g09_d01_L/g09/l502.exe)
 Closed shell SCF:
 Using DIIS extrapolation, IDIIS=  1040.
 Integral symmetry usage will be decided dynamically.
 IVT=      341420 IEndB=      341420 NGot=   268435456 MDV=   268216627
 LenX=   268216627 LenY=   268110561
 Requested convergence on RMS density matrix=1.00D-08 within 128 cycles.
 Requested convergence on MAX density matrix=1.00D-06.
 Requested convergence on             energy=1.00D-06.
 No special actions if energy rises.
 Fock matrices will be formed incrementally for  20 cycles.

 Cycle   1  Pass 1  IDiag  1:
 FoFJK:  IHMeth= 1 ICntrl=       0 DoSepK=F KAlg= 0 I1Cent=   0 FoldK=F
 IRaf= 990000000 NMat=   1 IRICut=       1 DoRegI=T DoRafI=F ISym2E= 1.
 FoFCou: FMM=F IPFlag=           0 FMFlag=      100000 FMFlg1=           0
         NFxFlg=           0 DoJE=F BraDBF=F KetDBF=F FulRan=T
         wScrn=  0.000000 ICntrl=       0 IOpCl=  0 I1Cent=           0 NGrid=           0
         NMat0=    1 NMatS0=      1 NMatT0=    0 NMatD0=    1 NMtDS0=    0 NMtDT0=    0
 Petite list used in FoFCou.
 E= -302.957566513026    
 DIIS: error= 3.31D-02 at cycle   1 NSaved=   1.
 NSaved= 1 IEnMin= 1 EnMin= -302.957566513026     IErMin= 1 ErrMin= 3.31D-02
 ErrMax= 3.31D-02  0.00D+00 EMaxC= 1.00D-01 BMatC= 2.29D-01 BMatP= 2.29D-01
 IDIUse=3 WtCom= 6.69D-01 WtEn= 3.31D-01
 Coeff-Com:  0.100D+01
 Coeff-En:   0.100D+01
 Coeff:      0.100D+01
 Gap=     0.259 Goal=   None    Shift=    0.000
 GapD=    0.259 DampG=1.000 DampE=0.500 DampFc=0.5000 IDamp=-1.
 Damping current iteration by 5.00D-01
 RMSDP=1.80D-03 MaxDP=6.47D-02              OVMax= 1.95D-01

 Cycle   2  Pass 1  IDiag  1:
 RMSU=  8.99D-04    CP:  9.95D-01
 E= -303.005798452782     Delta-E=       -0.048231939756 Rises=F Damp=T
 DIIS: error= 7.65D-03 at cycle   2 NSaved=   2.
 NSaved= 2 IEnMin= 2 EnMin= -303.005798452782     IErMin= 2 ErrMin= 7.65D-03
 ErrMax= 7.65D-03  0.00D+00 EMaxC= 1.00D-01 BMatC= 2.69D-02 BMatP= 2.29D-01
 IDIUse=3 WtCom= 9.24D-01 WtEn= 7.65D-02
 Coeff-Com:  0.104D+00 0.896D+00
 Coeff-En:   0.233D+00 0.767D+00
 Coeff:      0.113D+00 0.887D+00
 Gap=     0.309 Goal=   None    Shift=    0.000
 RMSDP=7.72D-04 MaxDP=2.21D-02 DE=-4.82D-02 OVMax= 1.19D-01

 Cycle   3  Pass 1  IDiag  1:
 RMSU=  7.63D-04    CP:  9.95D-01  1.13D+00
 E= -303.082008263179     Delta-E=       -0.076209810397 Rises=F Damp=F
 DIIS: error= 6.13D-03 at cycle   3 NSaved=   3.
 NSaved= 3 IEnMin= 3 EnMin= -303.082008263179     IErMin= 3 ErrMin= 6.13D-03
 ErrMax= 6.13D-03  0.00D+00 EMaxC= 1.00D-01 BMatC= 7.39D-03 BMatP= 2.69D-02
 IDIUse=3 WtCom= 9.39D-01 WtEn= 6.13D-02
 Coeff-Com: -0.461D-01 0.307D+00 0.739D+00
 Coeff-En:   0.000D+00 0.000D+00 0.100D+01
 Coeff:     -0.432D-01 0.288D+00 0.755D+00
 Gap=     0.294 Goal=   None    Shift=    0.000
 RMSDP=2.25D-04 MaxDP=8.32D-03 DE=-7.62D-02 OVMax= 3.31D-02

 Cycle   4  Pass 1  IDiag  1:
 RMSU=  2.12D-04    CP:  9.94D-01  1.21D+00  9.74D-01
 E= -303.086239404586     Delta-E=       -0.004231141407 Rises=F Damp=F
 DIIS: error= 2.69D-03 at cycle   4 NSaved=   4.
 NSaved= 4 IEnMin= 4 EnMin= -303.086239404586     IErMin= 4 ErrMin= 2.69D-03
 ErrMax= 2.69D-03  0.00D+00 EMaxC= 1.00D-01 BMatC= 2.27D-03 BMatP= 7.39D-03
 IDIUse=3 WtCom= 9.73D-01 WtEn= 2.69D-02
 Coeff-Com: -0.233D-01 0.603D-01 0.402D+00 0.561D+00
 Coeff-En:   0.000D+00 0.000D+00 0.202D+00 0.798D+00
 Coeff:     -0.227D-01 0.587D-01 0.397D+00 0.567D+00
 Gap=     0.295 Goal=   None    Shift=    0.000
 RMSDP=8.99D-05 MaxDP=3.61D-03 DE=-4.23D-03 OVMax= 1.10D-02

 Cycle   5  Pass 1  IDiag  1:
 RMSU=  5.45D-05    CP:  9.95D-01  1.20D+00  9.86D-01  6.72D-01
 E= -303.087703904681     Delta-E=       -0.001464500096 Rises=F Damp=F
 DIIS: error= 4.92D-04 at cycle   5 NSaved=   5.
 NSaved= 5 IEnMin= 5 EnMin= -303.087703904681     IErMin= 5 ErrMin= 4.92D-04
 ErrMax= 4.92D-04  0.00D+00 EMaxC= 1.00D-01 BMatC= 8.00D-05 BMatP= 2.27D-03
 IDIUse=3 WtCom= 9.95D-01 WtEn= 4.92D-03
 Coeff-Com: -0.613D-02 0.878D-02 0.147D+00 0.256D+00 0.594D+00
 Coeff-En:   0.000D+00 0.000D+00 0.000D+00 0.000D+00 0.100D+01
 Coeff:     -0.610D-02 0.874D-02 0.146D+00 0.255D+00 0.596D+00
 Gap=     0.296 Goal=   None    Shift=    0.000
 RMSDP=2.09D-05 MaxDP=7.01D-04 DE=-1.46D-03 OVMax= 2.63D-03

 Cycle   6  Pass 1  IDiag  1:
 RMSU=  1.96D-05    CP:  9.95D-01  1.20D+00  9.83D-01  6.88D-01  8.91D-01
 E= -303.087764225956     Delta-E=       -0.000060321274 Rises=F Damp=F
 DIIS: error= 9.08D-05 at cycle   6 NSaved=   6.
 NSaved= 6 IEnMin= 6 EnMin= -303.087764225956     IErMin= 6 ErrMin= 9.08D-05
 ErrMax= 9.08D-05  0.00D+00 EMaxC= 1.00D-01 BMatC= 3.40D-06 BMatP= 8.00D-05
 IDIUse=1 WtCom= 1.00D+00 WtEn= 0.00D+00
 Coeff-Com:  0.890D-03-0.347D-02-0.688D-03-0.418D-02 0.120D+00 0.888D+00
 Coeff:      0.890D-03-0.347D-02-0.688D-03-0.418D-02 0.120D+00 0.888D+00
 Gap=     0.296 Goal=   None    Shift=    0.000
 RMSDP=8.07D-06 MaxDP=2.62D-04 DE=-6.03D-05 OVMax= 9.10D-04

 Cycle   7  Pass 1  IDiag  1:
 RMSU=  5.35D-06    CP:  9.95D-01  1.20D+00  9.82D-01  6.86D-01  9.82D-01
                    CP:  1.17D+00
 E= -303.087767074651     Delta-E=       -0.000002848695 Rises=F Damp=F
 DIIS: error= 8.35D-05 at cycle   7 NSaved=   7.
 NSaved= 7 IEnMin= 7 EnMin= -303.087767074651     IErMin= 7 ErrMin= 8.35D-05
 ErrMax= 8.35D-05  0.00D+00 EMaxC= 1.00D-01 BMatC= 1.40D-06 BMatP= 3.40D-06
 IDIUse=1 WtCom= 1.00D+00 WtEn= 0.00D+00
 Coeff-Com:  0.145D-02-0.346D-02-0.198D-01-0.382D-01-0.829D-02 0.484D+00
 Coeff-Com:  0.584D+00
 Coeff:      0.145D-02-0.346D-02-0.198D-01-0.382D-01-0.829D-02 0.484D+00
 Coeff:      0.584D+00
 Gap=     0.296 Goal=   None    Shift=    0.000
 RMSDP=3.32D-06 MaxDP=1.21D-04 DE=-2.85D-06 OVMax= 5.06D-04

 Cycle   8  Pass 1  IDiag  1:
 RMSU=  2.25D-06    CP:  9.95D-01  1.20D+00  9.82D-01  6.86D-01  1.01D+00
                    CP:  1.26D+00  8.92D-01
 E= -303.087768126829     Delta-E=       -0.000001052178 Rises=F Damp=F
 DIIS: error= 2.43D-05 at cycle   8 NSaved=   8.
 NSaved= 8 IEnMin= 8 EnMin= -303.087768126829     IErMin= 8 ErrMin= 2.43D-05
 ErrMax= 2.43D-05  0.00D+00 EMaxC= 1.00D-01 BMatC= 1.38D-07 BMatP= 1.40D-06
 IDIUse=1 WtCom= 1.00D+00 WtEn= 0.00D+00
 Coeff-Com:  0.316D-03-0.527D-03-0.512D-02-0.118D-01-0.226D-01-0.622D-02
 Coeff-Com:  0.238D+00 0.808D+00
 Coeff:      0.316D-03-0.527D-03-0.512D-02-0.118D-01-0.226D-01-0.622D-02
 Coeff:      0.238D+00 0.808D+00
 Gap=     0.296 Goal=   None    Shift=    0.000
 RMSDP=1.13D-06 MaxDP=3.78D-05 DE=-1.05D-06 OVMax= 1.62D-04

 Cycle   9  Pass 1  IDiag  1:
 RMSU=  7.29D-07    CP:  9.95D-01  1.19D+00  9.82D-01  6.85D-01  1.02D+00
                    CP:  1.28D+00  1.00D+00  9.68D-01
 E= -303.087768258925     Delta-E=       -0.000000132096 Rises=F Damp=F
 DIIS: error= 3.36D-06 at cycle   9 NSaved=   9.
 NSaved= 9 IEnMin= 9 EnMin= -303.087768258925     IErMin= 9 ErrMin= 3.36D-06
 ErrMax= 3.36D-06  0.00D+00 EMaxC= 1.00D-01 BMatC= 3.78D-09 BMatP= 1.38D-07
 IDIUse=1 WtCom= 1.00D+00 WtEn= 0.00D+00
 Coeff-Com: -0.456D-04 0.124D-03 0.108D-02 0.133D-02-0.133D-02-0.313D-01
 Coeff-Com: -0.251D-01 0.478D-01 0.101D+01
 Coeff:     -0.456D-04 0.124D-03 0.108D-02 0.133D-02-0.133D-02-0.313D-01
 Coeff:     -0.251D-01 0.478D-01 0.101D+01
 Gap=     0.296 Goal=   None    Shift=    0.000
 RMSDP=2.73D-07 MaxDP=7.51D-06 DE=-1.32D-07 OVMax= 4.68D-05

 Cycle  10  Pass 1  IDiag  1:
 RMSU=  1.71D-07    CP:  9.95D-01  1.19D+00  9.82D-01  6.85D-01  1.02D+00
                    CP:  1.28D+00  1.01D+00  1.02D+00  1.18D+00
 E= -303.087768264169     Delta-E=       -0.000000005244 Rises=F Damp=F
 DIIS: error= 9.22D-07 at cycle  10 NSaved=  10.
 NSaved=10 IEnMin=10 EnMin= -303.087768264169     IErMin=10 ErrMin= 9.22D-07
 ErrMax= 9.22D-07  0.00D+00 EMaxC= 1.00D-01 BMatC= 3.44D-10 BMatP= 3.78D-09
 IDIUse=1 WtCom= 1.00D+00 WtEn= 0.00D+00
 Coeff-Com: -0.259D-04 0.572D-04 0.611D-03 0.963D-03 0.963D-03-0.863D-02
 Coeff-Com: -0.187D-01-0.356D-01 0.281D+00 0.779D+00
 Coeff:     -0.259D-04 0.572D-04 0.611D-03 0.963D-03 0.963D-03-0.863D-02
 Coeff:     -0.187D-01-0.356D-01 0.281D+00 0.779D+00
 Gap=     0.296 Goal=   None    Shift=    0.000
 RMSDP=6.03D-08 MaxDP=2.24D-06 DE=-5.24D-09 OVMax= 7.64D-06

 Cycle  11  Pass 1  IDiag  1:
 RMSU=  4.46D-08    CP:  9.95D-01  1.19D+00  9.82D-01  6.85D-01  1.02D+00
                    CP:  1.28D+00  1.01D+00  1.03D+00  1.23D+00  1.03D+00
 E= -303.087768264516     Delta-E=       -0.000000000347 Rises=F Damp=F
 DIIS: error= 3.49D-07 at cycle  11 NSaved=  11.
 NSaved=11 IEnMin=11 EnMin= -303.087768264516     IErMin=11 ErrMin= 3.49D-07
 ErrMax= 3.49D-07  0.00D+00 EMaxC= 1.00D-01 BMatC= 2.67D-11 BMatP= 3.44D-10
 IDIUse=1 WtCom= 1.00D+00 WtEn= 0.00D+00
 Coeff-Com: -0.196D-05 0.313D-05 0.685D-04 0.123D-03 0.398D-03-0.340D-04
 Coeff-Com: -0.207D-02-0.147D-01-0.122D-01 0.199D+00 0.829D+00
 Coeff:     -0.196D-05 0.313D-05 0.685D-04 0.123D-03 0.398D-03-0.340D-04
 Coeff:     -0.207D-02-0.147D-01-0.122D-01 0.199D+00 0.829D+00
 Gap=     0.296 Goal=   None    Shift=    0.000
 RMSDP=1.90D-08 MaxDP=4.78D-07 DE=-3.47D-10 OVMax= 1.98D-06

 Cycle  12  Pass 1  IDiag  1:
 RMSU=  1.23D-08    CP:  9.95D-01  1.19D+00  9.82D-01  6.85D-01  1.02D+00
                    CP:  1.28D+00  1.01D+00  1.03D+00  1.24D+00  1.09D+00
                    CP:  1.05D+00
 E= -303.087768264545     Delta-E=       -0.000000000029 Rises=F Damp=F
 DIIS: error= 5.75D-08 at cycle  12 NSaved=  12.
 NSaved=12 IEnMin=12 EnMin= -303.087768264545     IErMin=12 ErrMin= 5.75D-08
 ErrMax= 5.75D-08  0.00D+00 EMaxC= 1.00D-01 BMatC= 1.08D-12 BMatP= 2.67D-11
 IDIUse=1 WtCom= 1.00D+00 WtEn= 0.00D+00
 Coeff-Com:  0.169D-05-0.398D-05-0.374D-04-0.550D-04 0.119D-04 0.601D-03
 Coeff-Com:  0.144D-02 0.707D-03-0.231D-01-0.385D-01 0.961D-01 0.963D+00
 Coeff:      0.169D-05-0.398D-05-0.374D-04-0.550D-04 0.119D-04 0.601D-03
 Coeff:      0.144D-02 0.707D-03-0.231D-01-0.385D-01 0.961D-01 0.963D+00
 Gap=     0.296 Goal=   None    Shift=    0.000
 RMSDP=5.54D-09 MaxDP=1.81D-07 DE=-2.92D-11 OVMax= 6.26D-07

 SCF Done:  E(RM062X) =  -303.087768265     A.U. after   12 cycles
            NFock= 12  Conv=0.55D-08     -V/T= 2.0048
 KE= 3.016313300810D+02 PE=-1.040120922143D+03 EE= 2.714844246056D+02
 Leave Link  502 at Wed Aug 17 13:47:05 2022, MaxMem=   268435456 cpu:       772.3
 (Enter /usr/local/g09_d01_L/g09/l601.exe)
 Copying SCF densities to generalized density rwf, IOpCl= 0 IROHF=0.

 **********************************************************************

            Population analysis using the SCF density.

 **********************************************************************

 Orbital symmetries:
       Occupied  (A') (A') (A') (A') (A') (A') (A') (A') (A') (A')
                 (A') (A') (A") (A') (A') (A") (A') (A") (A')
       Virtual   (A") (A') (A') (A') (A") (A') (A') (A") (A') (A")
                 (A') (A') (A") (A') (A') (A') (A") (A') (A') (A')
                 (A") (A') (A') (A") (A') (A') (A") (A') (A') (A')
                 (A') (A") (A') (A") (A') (A") (A') (A') (A') (A")
                 (A') (A') (A') (A") (A') (A") (A') (A') (A') (A')
                 (A") (A') (A") (A') (A') (A') (A') (A") (A') (A")
                 (A') (A") (A") (A') (A') (A") (A") (A') (A') (A")
                 (A') (A') (A') (A") (A') (A') (A') (A') (A") (A")
                 (A') (A") (A') (A") (A') (A') (A") (A') (A') (A")
                 (A') (A') (A") (A') (A') (A") (A') (A') (A") (A')
                 (A") (A") (A') (A') (A") (A') (A') (A') (A') (A')
                 (A") (A') (A") (A') (A') (A") (A') (A') (A') (A")
                 (A") (A') (A") (A') (A") (A') (A') (A") (A') (A')
                 (A") (A') (A") (A') (A') (A") (A") (A') (A') (A')
                 (A') (A') (A") (A') (A') (A") (A") (A') (A") (A')
                 (A") (A") (A') (A') (A") (A') (A") (A') (A') (A")
                 (A') (A') (A") (A') (A") (A') (A') (A') (A') (A")
                 (A') (A') (A') (A") (A") (A") (A') (A') (A') (A")
                 (A') (A") (A') (A") (A') (A") (A') (A") (A') (A")
                 (A') (A') (A") (A') (A') (A') (A") (A') (A') (A')
                 (A") (A") (A') (A') (A") (A') (A') (A") (A') (A')
                 (A') (A') (A') (A') (A') (A') (A") (A") (A') (A')
                 (A") (A") (A') (A") (A') (A") (A') (A") (A") (A')
                 (A") (A") (A') (A') (A") (A") (A') (A') (A") (A')
                 (A') (A') (A") (A") (A') (A') (A') (A') (A') (A')
                 (A') (A') (A') (A') (A') (A') (A')
 The electronic state is 1-A'.
 Alpha  occ. eigenvalues --  -19.70100 -19.69308 -19.65286 -10.70608 -10.68158
 Alpha  occ. eigenvalues --   -1.27546  -1.23463  -1.18478  -0.81328  -0.72839
 Alpha  occ. eigenvalues --   -0.66611  -0.59991  -0.57974  -0.56376  -0.51091
 Alpha  occ. eigenvalues --   -0.50917  -0.44313  -0.42900  -0.36698
 Alpha virt. eigenvalues --   -0.07057  -0.00871   0.00646   0.02875   0.02975
 Alpha virt. eigenvalues --    0.05508   0.06071   0.06284   0.06751   0.07847
 Alpha virt. eigenvalues --    0.08961   0.09934   0.11475   0.12176   0.13622
 Alpha virt. eigenvalues --    0.14561   0.15688   0.16767   0.17619   0.19217
 Alpha virt. eigenvalues --    0.19307   0.20363   0.20845   0.22006   0.22496
 Alpha virt. eigenvalues --    0.24322   0.24551   0.27336   0.27492   0.31467
 Alpha virt. eigenvalues --    0.31717   0.32853   0.33266   0.33360   0.34091
 Alpha virt. eigenvalues --    0.36648   0.37235   0.38141   0.40517   0.41654
 Alpha virt. eigenvalues --    0.42903   0.44920   0.46987   0.47941   0.49822
 Alpha virt. eigenvalues --    0.51736   0.53699   0.54660   0.55716   0.58828
 Alpha virt. eigenvalues --    0.60008   0.61846   0.62937   0.64089   0.65468
 Alpha virt. eigenvalues --    0.67117   0.70462   0.70738   0.72974   0.73264
 Alpha virt. eigenvalues --    0.73443   0.74270   0.77890   0.78903   0.80490
 Alpha virt. eigenvalues --    0.81996   0.83118   0.83621   0.84221   0.86418
 Alpha virt. eigenvalues --    0.87587   0.88427   0.90040   0.90480   0.91025
 Alpha virt. eigenvalues --    0.92137   0.96968   0.97372   0.98011   1.00274
 Alpha virt. eigenvalues --    1.01369   1.04836   1.06867   1.10238   1.10451
 Alpha virt. eigenvalues --    1.12569   1.14989   1.16808   1.17979   1.19078
 Alpha virt. eigenvalues --    1.23608   1.25543   1.26076   1.27385   1.29474
 Alpha virt. eigenvalues --    1.29693   1.31349   1.37267   1.37483   1.43043
 Alpha virt. eigenvalues --    1.43045   1.45704   1.47228   1.50689   1.51930
 Alpha virt. eigenvalues --    1.56474   1.60308   1.61293   1.63905   1.64672
 Alpha virt. eigenvalues --    1.66815   1.68023   1.69208   1.78185   1.82327
 Alpha virt. eigenvalues --    1.83394   1.86986   1.91660   1.99653   2.02477
 Alpha virt. eigenvalues --    2.04175   2.05385   2.10871   2.13125   2.13304
 Alpha virt. eigenvalues --    2.13912   2.18091   2.19748   2.20528   2.22130
 Alpha virt. eigenvalues --    2.24477   2.26058   2.28037   2.28492   2.33431
 Alpha virt. eigenvalues --    2.34210   2.36328   2.39166   2.41916   2.45261
 Alpha virt. eigenvalues --    2.49769   2.51413   2.52983   2.53292   2.56974
 Alpha virt. eigenvalues --    2.57030   2.60578   2.64300   2.66277   2.67878
 Alpha virt. eigenvalues --    2.68032   2.73848   2.74123   2.75788   2.81439
 Alpha virt. eigenvalues --    2.87513   2.91776   2.94950   2.96415   3.00244
 Alpha virt. eigenvalues --    3.02003   3.10021   3.12203   3.15887   3.16927
 Alpha virt. eigenvalues --    3.18527   3.23513   3.31255   3.37869   3.39194
 Alpha virt. eigenvalues --    3.43709   3.46844   3.53059   3.53886   3.55481
 Alpha virt. eigenvalues --    3.61528   3.65041   3.69595   3.77718   3.78429
 Alpha virt. eigenvalues --    3.83714   3.90007   3.90194   3.92602   3.98065
 Alpha virt. eigenvalues --    3.98881   4.02050   4.09179   4.10025   4.17449
 Alpha virt. eigenvalues --    4.20167   4.31200   4.33093   4.35752   4.41270
 Alpha virt. eigenvalues --    4.45067   4.45631   4.57669   4.62425   4.67243
 Alpha virt. eigenvalues --    4.70859   4.75593   4.76060   4.85256   4.87397
 Alpha virt. eigenvalues --    4.92812   5.03903   5.04160   5.10225   5.22508
 Alpha virt. eigenvalues --    5.36318   5.62410   5.79006   5.85198   5.96219
 Alpha virt. eigenvalues --    6.07164   6.14872   6.19316   6.19331   6.30000
 Alpha virt. eigenvalues --    6.31706   6.38083   6.38933   6.41945   6.47234
 Alpha virt. eigenvalues --    6.51339   6.53590   6.59185   6.63534   6.65370
 Alpha virt. eigenvalues --    6.67289   6.71795   6.71854   6.79983   6.81103
 Alpha virt. eigenvalues --    6.84828   6.86517   6.92932   6.96852   6.99261
 Alpha virt. eigenvalues --    7.02348   7.05035   7.06054   7.07826   7.19735
 Alpha virt. eigenvalues --    7.25026   7.32369   7.35176   7.38818   7.45242
 Alpha virt. eigenvalues --    7.78513   7.93337  13.96144  14.70916  15.47548
 Alpha virt. eigenvalues --   16.45146  17.67835
     Molecular Orbital Coefficients:
                           1         2         3         4         5
                           O         O         O         O         O
     Eigenvalues --   -19.70100 -19.69308 -19.65286 -10.70608 -10.68158
   1 1   O  1S         -0.00078   0.97610   0.00000   0.00019   0.00013
   2        2S         -0.00065  -0.00622  -0.00020   0.00113   0.00320
   3        3S         -0.00013   0.04618  -0.00006  -0.00006   0.00124
   4        4S         -0.00219   0.00827  -0.00058   0.00417  -0.00216
   5        5S         -0.00636   0.00681  -0.00407  -0.00174   0.01473
   6        6PX        -0.00001  -0.00069  -0.00004   0.00001  -0.00039
   7        6PY        -0.00003   0.00139  -0.00008  -0.00008   0.00079
   8        6PZ         0.00000   0.00000   0.00000   0.00000   0.00000
   9        7PX         0.00009  -0.00035   0.00026  -0.00034   0.00094
  10        7PY         0.00001   0.00037   0.00055   0.00132  -0.00253
  11        7PZ         0.00000   0.00000   0.00000   0.00000   0.00000
  12        8PX        -0.00157   0.00259   0.00230   0.00298   0.00575
  13        8PY         0.00188  -0.00405   0.00457   0.00748  -0.01905
  14        8PZ         0.00000   0.00000   0.00000   0.00000   0.00000
  15        9PX         0.00006   0.00057  -0.00040   0.00013  -0.00029
  16        9PY        -0.00065   0.00025  -0.00039   0.00008   0.00037
  17        9PZ         0.00000   0.00000   0.00000   0.00000   0.00000
  18       10D 0        0.00003  -0.00019   0.00001  -0.00006  -0.00018
  19       10D+1        0.00000   0.00000   0.00000   0.00000   0.00000
  20       10D-1        0.00000   0.00000   0.00000   0.00000   0.00000
  21       10D+2        0.00003  -0.00019   0.00002  -0.00003  -0.00014
  22       10D-2        0.00000  -0.00030   0.00000   0.00003  -0.00022
  23       11D 0       -0.00023   0.00070  -0.00014  -0.00001   0.00249
  24       11D+1        0.00000   0.00000   0.00000   0.00000   0.00000
  25       11D-1        0.00000   0.00000   0.00000   0.00000   0.00000
  26       11D+2       -0.00015   0.00046  -0.00027  -0.00034   0.00189
  27       11D-2       -0.00008   0.00057   0.00001  -0.00063   0.00328
  28       12D 0       -0.00066   0.00199  -0.00083  -0.00017   0.00522
  29       12D+1        0.00000   0.00000   0.00000   0.00000   0.00000
  30       12D-1        0.00000   0.00000   0.00000   0.00000   0.00000
  31       12D+2       -0.00043   0.00099  -0.00145  -0.00284   0.00424
  32       12D-2       -0.00083   0.00168   0.00022  -0.00056   0.00426
  33       13F 0        0.00000   0.00000   0.00000   0.00000   0.00000
  34       13F+1        0.00000   0.00003  -0.00001   0.00006  -0.00007
  35       13F-1       -0.00003  -0.00003   0.00001   0.00001   0.00019
  36       13F+2        0.00000   0.00000   0.00000   0.00000   0.00000
  37       13F-2        0.00000   0.00000   0.00000   0.00000   0.00000
  38       13F+3        0.00001   0.00004  -0.00001  -0.00003  -0.00040
  39       13F-3        0.00005  -0.00001  -0.00004  -0.00002  -0.00006
  40       14F 0        0.00000   0.00000   0.00000   0.00000   0.00000
  41       14F+1        0.00009  -0.00039   0.00004  -0.00016  -0.00106
  42       14F-1       -0.00006   0.00068  -0.00001   0.00009   0.00140
  43       14F+2        0.00000   0.00000   0.00000   0.00000   0.00000
  44       14F-2        0.00000   0.00000   0.00000   0.00000   0.00000
  45       14F+3        0.00001  -0.00043  -0.00001   0.00069  -0.00160
  46       14F-3       -0.00012   0.00007   0.00012   0.00027  -0.00013
  47 2   O  1S          0.97618   0.00056   0.00028   0.00017  -0.00001
  48        2S         -0.00573  -0.00071   0.00084   0.00224  -0.00019
  49        3S          0.04606  -0.00002  -0.00011   0.00060  -0.00028
  50        4S          0.00020  -0.00327   0.00703   0.00058   0.00694
  51        5S          0.00251  -0.00830   0.00007  -0.01180  -0.01708
  52        6PX        -0.00124   0.00001   0.00007  -0.00038   0.00013
  53        6PY        -0.00110   0.00004  -0.00003   0.00003  -0.00004
  54        6PZ         0.00000   0.00000   0.00000   0.00000   0.00000
  55        7PX         0.00128   0.00021  -0.00073  -0.00071  -0.00101
  56        7PY        -0.00072  -0.00017   0.00028   0.00053   0.00028
  57        7PZ         0.00000   0.00000   0.00000   0.00000   0.00000
  58        8PX         0.00700  -0.00152  -0.00052   0.00200  -0.00922
  59        8PY         0.00077   0.00018   0.00112   0.00610  -0.00050
  60        8PZ         0.00000   0.00000   0.00000   0.00000   0.00000
  61        9PX        -0.00018   0.00134   0.00030   0.00142   0.00282
  62        9PY        -0.00026   0.00004  -0.00135  -0.00034   0.00000
  63        9PZ         0.00000   0.00000   0.00000   0.00000   0.00000
  64       10D 0       -0.00040   0.00004  -0.00005  -0.00018   0.00005
  65       10D+1        0.00000   0.00000   0.00000   0.00000   0.00000
  66       10D-1        0.00000   0.00000   0.00000   0.00000   0.00000
  67       10D+2        0.00001  -0.00003  -0.00001   0.00040   0.00000
  68       10D-2       -0.00021  -0.00005   0.00000  -0.00017   0.00009
  69       11D 0        0.00093  -0.00022   0.00002   0.00132  -0.00059
  70       11D+1        0.00000   0.00000   0.00000   0.00000   0.00000
  71       11D-1        0.00000   0.00000   0.00000   0.00000   0.00000
  72       11D+2       -0.00126   0.00017   0.00042  -0.00223   0.00060
  73       11D-2        0.00020   0.00033  -0.00021   0.00153  -0.00068
  74       12D 0        0.00224  -0.00033   0.00010   0.00209  -0.00152
  75       12D+1        0.00000   0.00000   0.00000   0.00000   0.00000
  76       12D-1        0.00000   0.00000   0.00000   0.00000   0.00000
  77       12D+2       -0.00216   0.00102   0.00042  -0.00157   0.00414
  78       12D-2        0.00035   0.00048  -0.00113  -0.00088  -0.00019
  79       13F 0        0.00000   0.00000   0.00000   0.00000   0.00000
  80       13F+1       -0.00003   0.00001   0.00007  -0.00009   0.00000
  81       13F-1        0.00017   0.00003  -0.00003   0.00002  -0.00007
  82       13F+2        0.00000   0.00000   0.00000   0.00000   0.00000
  83       13F-2        0.00000   0.00000   0.00000   0.00000   0.00000
  84       13F+3       -0.00013  -0.00001   0.00002   0.00027  -0.00001
  85       13F-3        0.00018   0.00002   0.00003  -0.00006   0.00004
  86       14F 0        0.00000   0.00000   0.00000   0.00000   0.00000
  87       14F+1       -0.00058   0.00019  -0.00027  -0.00106   0.00027
  88       14F-1       -0.00037  -0.00008   0.00015   0.00026   0.00024
  89       14F+2        0.00000   0.00000   0.00000   0.00000   0.00000
  90       14F-2        0.00000   0.00000   0.00000   0.00000   0.00000
  91       14F+3        0.00095   0.00004  -0.00065   0.00219  -0.00073
  92       14F-3       -0.00049  -0.00018  -0.00033  -0.00026   0.00043
  93 3   O  1S          0.00002  -0.00007   0.97621   0.00014   0.00016
  94        2S          0.00080  -0.00025  -0.00557   0.00323   0.00093
  95        3S         -0.00005  -0.00003   0.04623   0.00132  -0.00010
  96        4S          0.00242   0.00017   0.01025  -0.00149   0.00303
  97        5S         -0.00052  -0.00028   0.01021   0.00843   0.00889
  98        6PX        -0.00004   0.00003   0.00085   0.00045   0.00002
  99        6PY         0.00001   0.00006  -0.00143  -0.00083   0.00009
 100        6PZ         0.00000   0.00000   0.00000   0.00000   0.00000
 101        7PX         0.00037  -0.00016   0.00005  -0.00164   0.00013
 102        7PY        -0.00026  -0.00039  -0.00031   0.00293  -0.00119
 103        7PZ         0.00000   0.00000   0.00000   0.00000   0.00000
 104        8PX         0.00125  -0.00025  -0.00456  -0.00922  -0.00004
 105        8PY         0.00002  -0.00269   0.00586   0.01875  -0.00220
 106        8PZ         0.00000   0.00000   0.00000   0.00000   0.00000
 107        9PX        -0.00087   0.00050  -0.00073  -0.00232   0.00204
 108        9PY        -0.00038   0.00008  -0.00087   0.00059  -0.00108
 109        9PZ         0.00000   0.00000   0.00000   0.00000   0.00000
 110       10D 0       -0.00004   0.00002  -0.00024  -0.00017  -0.00006
 111       10D+1        0.00000   0.00000   0.00000   0.00000   0.00000
 112       10D-1        0.00000   0.00000   0.00000   0.00000   0.00000
 113       10D+2        0.00005  -0.00001  -0.00019  -0.00013  -0.00006
 114       10D-2        0.00000   0.00000  -0.00033  -0.00021   0.00004
 115       11D 0        0.00009  -0.00011   0.00095   0.00270  -0.00005
 116       11D+1        0.00000   0.00000   0.00000   0.00000   0.00000
 117       11D-1        0.00000   0.00000   0.00000   0.00000   0.00000
 118       11D+2       -0.00034   0.00001   0.00050   0.00227  -0.00007
 119       11D-2       -0.00016   0.00000   0.00084   0.00358  -0.00062
 120       12D 0        0.00014  -0.00052   0.00281   0.00544   0.00053
 121       12D+1        0.00000   0.00000   0.00000   0.00000   0.00000
 122       12D-1        0.00000   0.00000   0.00000   0.00000   0.00000
 123       12D+2        0.00029  -0.00070   0.00137   0.00430  -0.00114
 124       12D-2       -0.00060  -0.00023   0.00263   0.00574  -0.00060
 125       13F 0        0.00000   0.00000   0.00000   0.00000   0.00000
 126       13F+1        0.00001   0.00002  -0.00001   0.00010  -0.00006
 127       13F-1        0.00001  -0.00001   0.00003  -0.00022   0.00001
 128       13F+2        0.00000   0.00000   0.00000   0.00000   0.00000
 129       13F-2        0.00000   0.00000   0.00000   0.00000   0.00000
 130       13F+3        0.00002   0.00002  -0.00003   0.00036   0.00003
 131       13F-3       -0.00002   0.00002   0.00001  -0.00005   0.00000
 132       14F 0        0.00000   0.00000   0.00000   0.00000   0.00000
 133       14F+1        0.00001  -0.00003   0.00040   0.00088   0.00015
 134       14F-1       -0.00001  -0.00004  -0.00080  -0.00153  -0.00016
 135       14F+2        0.00000   0.00000   0.00000   0.00000   0.00000
 136       14F-2        0.00000   0.00000   0.00000   0.00000   0.00000
 137       14F+3       -0.00030   0.00005   0.00046   0.00194  -0.00070
 138       14F-3        0.00029  -0.00016  -0.00009  -0.00008  -0.00031
 139 4   C  1S         -0.00002   0.00029   0.00010   0.00752   0.97917
 140        2S         -0.00029   0.00290   0.00060   0.00166   0.01327
 141        3S         -0.00031   0.00205  -0.00004   0.00125   0.05125
 142        4S         -0.01118  -0.00215  -0.01081  -0.04190   0.03034
 143        5S          0.00464  -0.00920   0.01118   0.00737  -0.01041
 144        6PX        -0.00003   0.00027  -0.00005  -0.00007   0.00080
 145        6PY        -0.00007  -0.00048  -0.00009  -0.00005  -0.00039
 146        6PZ         0.00000   0.00000   0.00000   0.00000   0.00000
 147        7PX         0.00014   0.00101   0.00236   0.00409  -0.00124
 148        7PY         0.00214  -0.00302   0.00323   0.00829  -0.01149
 149        7PZ         0.00000   0.00000   0.00000   0.00000   0.00000
 150        8PX        -0.00143   0.00712  -0.01110  -0.00934   0.01787
 151        8PY        -0.00606   0.00885  -0.01583  -0.02575   0.01930
 152        8PZ         0.00000   0.00000   0.00000   0.00000   0.00000
 153        9PX         0.00020  -0.00056   0.00091   0.00014   0.00140
 154        9PY         0.00006  -0.00065   0.00115   0.00056  -0.00007
 155        9PZ         0.00000   0.00000   0.00000   0.00000   0.00000
 156       10D 0        0.00001  -0.00016  -0.00005  -0.00013  -0.00212
 157       10D+1        0.00000   0.00000   0.00000   0.00000   0.00000
 158       10D-1        0.00000   0.00000   0.00000   0.00000   0.00000
 159       10D+2        0.00007  -0.00027  -0.00017  -0.00016  -0.00024
 160       10D-2        0.00010  -0.00035   0.00002   0.00034  -0.00152
 161       11D 0       -0.00020   0.00197   0.00020   0.00232   0.00275
 162       11D+1        0.00000   0.00000   0.00000   0.00000   0.00000
 163       11D-1        0.00000   0.00000   0.00000   0.00000   0.00000
 164       11D+2       -0.00187   0.00313   0.00031  -0.00137   0.00273
 165       11D-2        0.00109   0.00167   0.00388   0.00375  -0.00309
 166       12D 0       -0.00103   0.00184  -0.00155  -0.00176   0.00302
 167       12D+1        0.00000   0.00000   0.00000   0.00000   0.00000
 168       12D-1        0.00000   0.00000   0.00000   0.00000   0.00000
 169       12D+2       -0.00189   0.00188   0.00243   0.00422   0.00842
 170       12D-2       -0.00411   0.00817  -0.00407  -0.00247   0.01984
 171       13F 0        0.00000   0.00000   0.00000   0.00000   0.00000
 172       13F+1        0.00006   0.00013  -0.00007  -0.00001   0.00025
 173       13F-1       -0.00006  -0.00023  -0.00009  -0.00005   0.00093
 174       13F+2        0.00000   0.00000   0.00000   0.00000   0.00000
 175       13F-2        0.00000   0.00000   0.00000   0.00000   0.00000
 176       13F+3       -0.00002   0.00074  -0.00005   0.00080  -0.00166
 177       13F-3       -0.00017   0.00005   0.00005   0.00008   0.00029
 178       14F 0        0.00000   0.00000   0.00000   0.00000   0.00000
 179       14F+1       -0.00024  -0.00025   0.00047  -0.00009  -0.00029
 180       14F-1        0.00052  -0.00056   0.00076   0.00152  -0.00133
 181       14F+2        0.00000   0.00000   0.00000   0.00000   0.00000
 182       14F-2        0.00000   0.00000   0.00000   0.00000   0.00000
 183       14F+3       -0.00228   0.00412  -0.00283   0.00114   0.00949
 184       14F-3       -0.00113   0.00161   0.00267   0.00418  -0.00222
 185 5   C  1S          0.00028   0.00012   0.00029   0.97942  -0.00724
 186        2S          0.00226   0.00078   0.00306   0.01449   0.00171
 187        3S          0.00026   0.00000   0.00232   0.05163   0.00038
 188        4S          0.01070  -0.01088   0.00568   0.02636  -0.04445
 189        5S         -0.00111   0.00880  -0.01280  -0.00597   0.00583
 190        6PX         0.00001   0.00009  -0.00028   0.00088   0.00011
 191        6PY        -0.00003   0.00007   0.00042   0.00008   0.00001
 192        6PZ         0.00000   0.00000   0.00000   0.00000   0.00000
 193        7PX         0.00716  -0.00235  -0.00233  -0.00409  -0.00654
 194        7PY         0.00042  -0.00246   0.00551   0.01422  -0.00790
 195        7PZ         0.00000   0.00000   0.00000   0.00000   0.00000
 196        8PX        -0.00285   0.00233  -0.00506  -0.01517   0.00210
 197        8PY        -0.01015   0.01113  -0.02021  -0.03234   0.02330
 198        8PZ         0.00000   0.00000   0.00000   0.00000   0.00000
 199        9PX         0.00109  -0.00018   0.00198   0.00341  -0.00019
 200        9PY         0.00043  -0.00117   0.00154   0.00006  -0.00097
 201        9PZ         0.00000   0.00000   0.00000   0.00000   0.00000
 202       10D 0       -0.00024  -0.00006  -0.00018  -0.00232  -0.00009
 203       10D+1        0.00000   0.00000   0.00000   0.00000   0.00000
 204       10D-1        0.00000   0.00000   0.00000   0.00000   0.00000
 205       10D+2        0.00065  -0.00018  -0.00037  -0.00023  -0.00015
 206       10D-2        0.00008   0.00000  -0.00035  -0.00176   0.00049
 207       11D 0       -0.00021   0.00009   0.00211   0.00364   0.00195
 208       11D+1        0.00000   0.00000   0.00000   0.00000   0.00000
 209       11D-1        0.00000   0.00000   0.00000   0.00000   0.00000
 210       11D+2        0.00087   0.00139   0.00320   0.00352  -0.00341
 211       11D-2       -0.00157   0.00319   0.00203  -0.00149   0.00198
 212       12D 0        0.00013  -0.00106   0.00288   0.00424  -0.00083
 213       12D+1        0.00000   0.00000   0.00000   0.00000   0.00000
 214       12D-1        0.00000   0.00000   0.00000   0.00000   0.00000
 215       12D+2       -0.00469   0.00334   0.00022   0.00033   0.01207
 216       12D-2        0.00062  -0.00075   0.00931   0.01548   0.00232
 217       13F 0        0.00000   0.00000   0.00000   0.00000   0.00000
 218       13F+1       -0.00024   0.00012  -0.00011   0.00015   0.00018
 219       13F-1       -0.00001   0.00004   0.00009  -0.00118   0.00001
 220       13F+2        0.00000   0.00000   0.00000   0.00000   0.00000
 221       13F-2        0.00000   0.00000   0.00000   0.00000   0.00000
 222       13F+3       -0.00005   0.00006  -0.00071   0.00177  -0.00096
 223       13F-3       -0.00008  -0.00002   0.00014   0.00002   0.00007
 224       14F 0        0.00000   0.00000   0.00000   0.00000   0.00000
 225       14F+1        0.00072  -0.00046  -0.00018  -0.00012  -0.00097
 226       14F-1        0.00056  -0.00065   0.00115   0.00206  -0.00143
 227       14F+2        0.00000   0.00000   0.00000   0.00000   0.00000
 228       14F-2        0.00000   0.00000   0.00000   0.00000   0.00000
 229       14F+3       -0.00255   0.00241  -0.00568  -0.00903  -0.00031
 230       14F-3        0.00083  -0.00159  -0.00220  -0.00179  -0.00068
 231 6   H  1S         -0.00002   0.00028  -0.00023   0.00019   0.00098
 232        2S          0.00006   0.00386  -0.00177   0.00630   0.00205
 233        3S          0.00412   0.00539  -0.01343  -0.00997  -0.00975
 234        4S         -0.00006   0.00036   0.00037   0.00044   0.00152
 235        5PX        -0.00002   0.00027  -0.00006   0.00023  -0.00049
 236        5PY        -0.00003   0.00003   0.00001  -0.00001   0.00022
 237        5PZ         0.00000   0.00000   0.00000   0.00000   0.00000
 238        6PX         0.00059  -0.00030   0.00134   0.00247  -0.00669
 239        6PY         0.00135  -0.00093   0.00023  -0.00196  -0.00037
 240        6PZ         0.00000   0.00000   0.00000   0.00000   0.00000
 241        7PX         0.00142   0.00070  -0.00178  -0.00043  -0.00533
 242        7PY        -0.00119   0.00338  -0.00058   0.00074   0.00868
 243        7PZ         0.00000   0.00000   0.00000   0.00000   0.00000
 244        8D 0       -0.00003   0.00012  -0.00017  -0.00009   0.00098
 245        8D+1        0.00000   0.00000   0.00000   0.00000   0.00000
 246        8D-1        0.00000   0.00000   0.00000   0.00000   0.00000
 247        8D+2        0.00000   0.00009   0.00007   0.00017  -0.00148
 248        8D-2        0.00012  -0.00001   0.00009  -0.00029   0.00029
 249        9D 0       -0.00020   0.00042  -0.00054   0.00003   0.00242
 250        9D+1        0.00000   0.00000   0.00000   0.00000   0.00000
 251        9D-1        0.00000   0.00000   0.00000   0.00000   0.00000
 252        9D+2       -0.00003  -0.00013   0.00024   0.00059  -0.00153
 253        9D-2        0.00022   0.00018   0.00004  -0.00067  -0.00001
 254 7   H  1S          0.00080   0.00004   0.00014   0.00019  -0.00021
 255        2S         -0.00100   0.00126  -0.00186   0.00245  -0.00001
 256        3S         -0.00348   0.00239   0.00370   0.01165   0.00445
 257        4S         -0.00063  -0.00038  -0.00042  -0.00121  -0.00091
 258        5PX         0.00009   0.00002  -0.00014   0.00039  -0.00023
 259        5PY        -0.00016  -0.00004   0.00004   0.00000  -0.00013
 260        5PZ         0.00000   0.00000   0.00000   0.00000   0.00000
 261        6PX         0.00048   0.00007  -0.00004   0.00264   0.00081
 262        6PY        -0.00162   0.00043  -0.00078   0.00194  -0.00010
 263        6PZ         0.00000   0.00000   0.00000   0.00000   0.00000
 264        7PX         0.00091  -0.00041  -0.00126  -0.00026  -0.00021
 265        7PY        -0.00135   0.00072   0.00075   0.00349   0.00100
 266        7PZ         0.00000   0.00000   0.00000   0.00000   0.00000
 267        8D 0        0.00055   0.00003   0.00003   0.00002  -0.00001
 268        8D+1        0.00000   0.00000   0.00000   0.00000   0.00000
 269        8D-1        0.00000   0.00000   0.00000   0.00000   0.00000
 270        8D+2        0.00081  -0.00001  -0.00001  -0.00061  -0.00005
 271        8D-2        0.00044  -0.00001  -0.00010   0.00052  -0.00008
 272        9D 0       -0.00004   0.00004   0.00031   0.00047   0.00057
 273        9D+1        0.00000   0.00000   0.00000   0.00000   0.00000
 274        9D-1        0.00000   0.00000   0.00000   0.00000   0.00000
 275        9D+2        0.00026   0.00003  -0.00002  -0.00150  -0.00055
 276        9D-2        0.00046  -0.00016  -0.00044  -0.00016  -0.00045
                           6         7         8         9        10
                           O         O         O         O         O
     Eigenvalues --    -1.27546  -1.23463  -1.18478  -0.81328  -0.72839
   1 1   O  1S         -0.07535  -0.17225  -0.01676   0.07372   0.02444
   2        2S          0.17750   0.40526   0.04079  -0.18457  -0.06185
   3        3S          0.05109   0.11780   0.01181  -0.05578  -0.01901
   4        4S          0.11377   0.27873   0.04320  -0.19431  -0.06768
   5        5S          0.02348   0.09115  -0.01297  -0.02287  -0.05557
   6        6PX        -0.01493  -0.03960  -0.00619  -0.01082  -0.01479
   7        6PY         0.03449   0.06972   0.00538   0.04940   0.01630
   8        6PZ         0.00000   0.00000   0.00000   0.00000   0.00000
   9        7PX        -0.01879  -0.05162  -0.00888  -0.00759  -0.01605
  10        7PY         0.04465   0.08977   0.00952   0.04867   0.01713
  11        7PZ         0.00000   0.00000   0.00000   0.00000   0.00000
  12        8PX        -0.00016  -0.00605   0.00014  -0.00376  -0.01280
  13        8PY         0.01158   0.01591   0.02406   0.00733   0.01848
  14        8PZ         0.00000   0.00000   0.00000   0.00000   0.00000
  15        9PX        -0.00316   0.00259  -0.00235   0.00116  -0.00446
  16        9PY        -0.00023   0.00940  -0.00361  -0.00019  -0.00679
  17        9PZ         0.00000   0.00000   0.00000   0.00000   0.00000
  18       10D 0       -0.00169  -0.00344  -0.00032  -0.00068  -0.00041
  19       10D+1        0.00000   0.00000   0.00000   0.00000   0.00000
  20       10D-1        0.00000   0.00000   0.00000   0.00000   0.00000
  21       10D+2       -0.00188  -0.00351  -0.00036  -0.00143   0.00041
  22       10D-2       -0.00250  -0.00609  -0.00070  -0.00031  -0.00047
  23       11D 0       -0.00259  -0.00524  -0.00044  -0.00139  -0.00100
  24       11D+1        0.00000   0.00000   0.00000   0.00000   0.00000
  25       11D-1        0.00000   0.00000   0.00000   0.00000   0.00000
  26       11D+2       -0.00415  -0.00763  -0.00007  -0.00185   0.00151
  27       11D-2       -0.00578  -0.01380  -0.00314   0.00294  -0.00141
  28       12D 0        0.00319   0.00582  -0.00192   0.00236  -0.00171
  29       12D+1        0.00000   0.00000   0.00000   0.00000   0.00000
  30       12D-1        0.00000   0.00000   0.00000   0.00000   0.00000
  31       12D+2        0.00069   0.00501  -0.00541   0.00266  -0.00462
  32       12D-2        0.00193   0.00766  -0.00266  -0.00007  -0.00486
  33       13F 0        0.00000   0.00000   0.00000   0.00000   0.00000
  34       13F+1        0.00057   0.00136   0.00015  -0.00016   0.00003
  35       13F-1       -0.00109  -0.00221  -0.00011  -0.00010   0.00001
  36       13F+2        0.00000   0.00000   0.00000   0.00000   0.00000
  37       13F-2        0.00000   0.00000   0.00000   0.00000   0.00000
  38       13F+3        0.00144   0.00345   0.00038  -0.00006   0.00001
  39       13F-3       -0.00020  -0.00016   0.00003  -0.00065   0.00064
  40       14F 0        0.00000   0.00000   0.00000   0.00000   0.00000
  41       14F+1       -0.00030  -0.00083   0.00000   0.00044   0.00035
  42       14F-1        0.00051   0.00057   0.00024  -0.00015  -0.00002
  43       14F+2        0.00000   0.00000   0.00000   0.00000   0.00000
  44       14F-2        0.00000   0.00000   0.00000   0.00000   0.00000
  45       14F+3        0.00097   0.00109   0.00055  -0.00082   0.00046
  46       14F-3        0.00014   0.00068   0.00134  -0.00064  -0.00018
  47 2   O  1S         -0.13990   0.06046   0.12466   0.04080  -0.02419
  48        2S          0.32898  -0.14387  -0.29517  -0.10089   0.05905
  49        3S          0.09448  -0.04178  -0.08482  -0.03066   0.02050
  50        4S          0.17959  -0.10079  -0.20773  -0.11184   0.04273
  51        5S         -0.02379  -0.04639  -0.04115  -0.01566   0.01858
  52        6PX        -0.04387   0.01730   0.01759  -0.06508   0.19599
  53        6PY        -0.02150   0.00401   0.03434   0.00120  -0.16323
  54        6PZ         0.00000   0.00000   0.00000   0.00000   0.00000
  55        7PX        -0.05496   0.02221   0.03067  -0.07449   0.23084
  56        7PY        -0.03083   0.00672   0.04516   0.00154  -0.18988
  57        7PZ         0.00000   0.00000   0.00000   0.00000   0.00000
  58        8PX         0.00556  -0.00677   0.02310  -0.04574   0.10461
  59        8PY        -0.00740   0.01820   0.02480  -0.00562  -0.08574
  60        8PZ         0.00000   0.00000   0.00000   0.00000   0.00000
  61        9PX         0.00886   0.00639   0.00738  -0.00335   0.00498
  62        9PY        -0.00007   0.00576  -0.00285   0.00893  -0.01141
  63        9PZ         0.00000   0.00000   0.00000   0.00000   0.00000
  64       10D 0       -0.00375   0.00146   0.00290  -0.00047   0.00026
  65       10D+1        0.00000   0.00000   0.00000   0.00000   0.00000
  66       10D-1        0.00000   0.00000   0.00000   0.00000   0.00000
  67       10D+2        0.00143  -0.00078   0.00026   0.00293  -0.01148
  68       10D-2       -0.00126   0.00080   0.00047   0.00223  -0.00121
  69       11D 0       -0.00795   0.00241   0.00801  -0.00005   0.00445
  70       11D+1        0.00000   0.00000   0.00000   0.00000   0.00000
  71       11D-1        0.00000   0.00000   0.00000   0.00000   0.00000
  72       11D+2        0.00409  -0.00064  -0.00598   0.00702  -0.02444
  73       11D-2       -0.00099   0.00252   0.00081   0.00877   0.00454
  74       12D 0        0.00723  -0.00193  -0.00059   0.00065   0.00434
  75       12D+1        0.00000   0.00000   0.00000   0.00000   0.00000
  76       12D-1        0.00000   0.00000   0.00000   0.00000   0.00000
  77       12D+2       -0.00792   0.00993  -0.00495   0.00873  -0.00514
  78       12D-2        0.00094  -0.00315  -0.00691   0.01059   0.01119
  79       13F 0        0.00000   0.00000   0.00000   0.00000   0.00000
  80       13F+1        0.00181  -0.00056  -0.00119   0.00074  -0.00335
  81       13F-1        0.00083  -0.00011  -0.00097  -0.00001   0.00214
  82       13F+2        0.00000   0.00000   0.00000   0.00000   0.00000
  83       13F-2        0.00000   0.00000   0.00000   0.00000   0.00000
  84       13F+3       -0.00228   0.00083   0.00244  -0.00011   0.00073
  85       13F-3        0.00139  -0.00081  -0.00082  -0.00093  -0.00168
  86       14F 0        0.00000   0.00000   0.00000   0.00000   0.00000
  87       14F+1       -0.00005   0.00045  -0.00062   0.00060  -0.00158
  88       14F-1       -0.00061  -0.00041   0.00092  -0.00045   0.00017
  89       14F+2        0.00000   0.00000   0.00000   0.00000   0.00000
  90       14F-2        0.00000   0.00000   0.00000   0.00000   0.00000
  91       14F+3        0.00025   0.00013   0.00082   0.00012   0.00643
  92       14F-3       -0.00217  -0.00027   0.00194  -0.00180  -0.00182
  93 3   O  1S         -0.08608   0.05963  -0.15631   0.05609  -0.04275
  94        2S          0.20146  -0.13877   0.36862  -0.14127   0.10756
  95        3S          0.05804  -0.04026   0.10705  -0.04258   0.03267
  96        4S          0.11737  -0.07908   0.26748  -0.15095   0.13960
  97        5S          0.02562  -0.02075   0.07667  -0.05813   0.04153
  98        6PX         0.02640  -0.01747   0.03003  -0.01786  -0.07364
  99        6PY        -0.03964   0.02534  -0.06469  -0.03654   0.00940
 100        6PZ         0.00000   0.00000   0.00000   0.00000   0.00000
 101        7PX         0.03257  -0.02198   0.03915  -0.02477  -0.08404
 102        7PY        -0.04842   0.02929  -0.08523  -0.03689   0.00363
 103        7PZ         0.00000   0.00000   0.00000   0.00000   0.00000
 104        8PX         0.00633  -0.00384  -0.00747  -0.01481  -0.05603
 105        8PY         0.00535  -0.01134  -0.02546  -0.02272  -0.01795
 106        8PZ         0.00000   0.00000   0.00000   0.00000   0.00000
 107        9PX        -0.00356   0.00637  -0.00077  -0.00325  -0.00584
 108        9PY         0.00118   0.00120  -0.00672   0.00672  -0.00762
 109        9PZ         0.00000   0.00000   0.00000   0.00000   0.00000
 110       10D 0       -0.00219   0.00136  -0.00336  -0.00006   0.00081
 111       10D+1        0.00000   0.00000   0.00000   0.00000   0.00000
 112       10D-1        0.00000   0.00000   0.00000   0.00000   0.00000
 113       10D+2       -0.00176   0.00094  -0.00379  -0.00183  -0.00218
 114       10D-2       -0.00365   0.00247  -0.00515   0.00099   0.00280
 115       11D 0       -0.00285   0.00207  -0.00531  -0.00139   0.00159
 116       11D+1        0.00000   0.00000   0.00000   0.00000   0.00000
 117       11D-1        0.00000   0.00000   0.00000   0.00000   0.00000
 118       11D+2       -0.00190   0.00248  -0.00869  -0.00521  -0.00812
 119       11D-2       -0.00760   0.00450  -0.01244   0.00549   0.00649
 120       12D 0        0.00546  -0.00381   0.00765  -0.00335  -0.00091
 121       12D+1        0.00000   0.00000   0.00000   0.00000   0.00000
 122       12D-1        0.00000   0.00000   0.00000   0.00000   0.00000
 123       12D+2        0.00797  -0.00529   0.00037  -0.00443  -0.00517
 124       12D-2        0.00471  -0.00537   0.00888  -0.00084   0.00406
 125       13F 0        0.00000   0.00000   0.00000   0.00000   0.00000
 126       13F+1       -0.00081   0.00055  -0.00103   0.00030   0.00058
 127       13F-1        0.00130  -0.00086   0.00217   0.00008  -0.00003
 128       13F+2        0.00000   0.00000   0.00000   0.00000   0.00000
 129       13F-2        0.00000   0.00000   0.00000   0.00000   0.00000
 130       13F+3       -0.00182   0.00132  -0.00311   0.00036   0.00048
 131       13F-3       -0.00041   0.00025   0.00055   0.00144   0.00220
 132       14F 0        0.00000   0.00000   0.00000   0.00000   0.00000
 133       14F+1        0.00006  -0.00018   0.00021  -0.00021   0.00020
 134       14F-1       -0.00085  -0.00017  -0.00125   0.00107  -0.00063
 135       14F+2        0.00000   0.00000   0.00000   0.00000   0.00000
 136       14F-2        0.00000   0.00000   0.00000   0.00000   0.00000
 137       14F+3       -0.00010  -0.00012  -0.00143   0.00103   0.00083
 138       14F-3       -0.00096  -0.00089  -0.00071   0.00167   0.00240
 139 4   C  1S         -0.05575  -0.09191  -0.01533  -0.12640  -0.04569
 140        2S          0.12582   0.20628   0.03589   0.31154   0.11417
 141        3S          0.03276   0.05167   0.01077   0.07412   0.02742
 142        4S         -0.03392   0.11426  -0.06373   0.25856   0.07787
 143        5S         -0.00613  -0.09776   0.03729  -0.00348   0.06759
 144        6PX         0.02959   0.04744   0.00025  -0.01160  -0.04478
 145        6PY        -0.02300  -0.08906  -0.00210   0.11030   0.01627
 146        6PZ         0.00000   0.00000   0.00000   0.00000   0.00000
 147        7PX         0.01856   0.02066  -0.00306  -0.00746  -0.05664
 148        7PY        -0.01198  -0.06718   0.00717   0.10700   0.01977
 149        7PZ         0.00000   0.00000   0.00000   0.00000   0.00000
 150        8PX        -0.02070   0.02994  -0.05314  -0.02741  -0.02584
 151        8PY        -0.02192   0.08910  -0.05301   0.07233   0.00133
 152        8PZ         0.00000   0.00000   0.00000   0.00000   0.00000
 153        9PX         0.00190  -0.00936   0.00778  -0.00347   0.01402
 154        9PY         0.00229  -0.00881   0.00814  -0.00209   0.00860
 155        9PZ         0.00000   0.00000   0.00000   0.00000   0.00000
 156       10D 0       -0.00486  -0.00801  -0.00098  -0.00403  -0.00113
 157       10D+1        0.00000   0.00000   0.00000   0.00000   0.00000
 158       10D-1        0.00000   0.00000   0.00000   0.00000   0.00000
 159       10D+2       -0.00238  -0.00522  -0.00253   0.00180   0.00112
 160       10D-2       -0.00353  -0.01128  -0.00192   0.00780  -0.00018
 161       11D 0       -0.00049  -0.00886   0.00242  -0.01108  -0.00396
 162       11D+1        0.00000   0.00000   0.00000   0.00000   0.00000
 163       11D-1        0.00000   0.00000   0.00000   0.00000   0.00000
 164       11D+2        0.01026   0.02233   0.02288  -0.00830   0.00854
 165       11D-2        0.00499   0.00737   0.01077  -0.00627   0.00035
 166       12D 0        0.00096   0.01098   0.00046  -0.00321  -0.00461
 167       12D+1        0.00000   0.00000   0.00000   0.00000   0.00000
 168       12D-1        0.00000   0.00000   0.00000   0.00000   0.00000
 169       12D+2        0.01794   0.00783   0.00326  -0.01111  -0.01453
 170       12D-2        0.01138   0.05352  -0.01817  -0.00507  -0.02424
 171       13F 0        0.00000   0.00000   0.00000   0.00000   0.00000
 172       13F+1       -0.00041  -0.00060   0.00005  -0.00165   0.00021
 173       13F-1        0.00066   0.00149  -0.00009  -0.00164  -0.00056
 174       13F+2        0.00000   0.00000   0.00000   0.00000   0.00000
 175       13F-2        0.00000   0.00000   0.00000   0.00000   0.00000
 176       13F+3       -0.00178  -0.00544   0.00068  -0.00479  -0.00150
 177       13F-3        0.00019   0.00073  -0.00080  -0.00106  -0.00102
 178       14F 0        0.00000   0.00000   0.00000   0.00000   0.00000
 179       14F+1        0.00128   0.00025   0.00180   0.00339   0.00001
 180       14F-1        0.00073  -0.00518   0.00324  -0.00190   0.00199
 181       14F+2        0.00000   0.00000   0.00000   0.00000   0.00000
 182       14F-2        0.00000   0.00000   0.00000   0.00000   0.00000
 183       14F+3        0.00429   0.01480  -0.00257  -0.00203  -0.00296
 184       14F-3        0.00682   0.00668   0.01733  -0.00780   0.00335
 185 5   C  1S         -0.10584   0.04559  -0.04658  -0.08916   0.07368
 186        2S          0.23877  -0.10138   0.10540   0.22030  -0.17927
 187        3S          0.06167  -0.02417   0.02855   0.05193  -0.04525
 188        4S          0.07216  -0.13674   0.05946   0.07937  -0.08956
 189        5S         -0.00164   0.08453  -0.05995   0.04074  -0.06894
 190        6PX         0.02633  -0.00909  -0.09945  -0.03681  -0.13299
 191        6PY         0.02647  -0.03933   0.09046  -0.11785  -0.02984
 192        6PZ         0.00000   0.00000   0.00000   0.00000   0.00000
 193        7PX         0.03130  -0.01940  -0.08646  -0.04098  -0.13696
 194        7PY         0.01815  -0.03689   0.06974  -0.12963  -0.03966
 195        7PZ         0.00000   0.00000   0.00000   0.00000   0.00000
 196        8PX        -0.02592   0.02737   0.01579   0.02130   0.00854
 197        8PY        -0.04733   0.09234  -0.08795   0.02334  -0.01547
 198        8PZ         0.00000   0.00000   0.00000   0.00000   0.00000
 199        9PX         0.00694  -0.01096   0.01319  -0.00653   0.01109
 200        9PY        -0.00369  -0.01134   0.00336  -0.00660   0.01197
 201        9PZ         0.00000   0.00000   0.00000   0.00000   0.00000
 202       10D 0       -0.00937   0.00417  -0.00406  -0.00307   0.00254
 203       10D+1        0.00000   0.00000   0.00000   0.00000   0.00000
 204       10D-1        0.00000   0.00000   0.00000   0.00000   0.00000
 205       10D+2        0.00216  -0.00212  -0.01144   0.00042  -0.00483
 206       10D-2       -0.00640   0.00398  -0.00759   0.00697  -0.00500
 207       11D 0       -0.00727   0.00793   0.00176  -0.00937   0.00842
 208       11D+1        0.00000   0.00000   0.00000   0.00000   0.00000
 209       11D-1        0.00000   0.00000   0.00000   0.00000   0.00000
 210       11D+2        0.01928   0.00524   0.01619  -0.01903  -0.00534
 211       11D-2       -0.00021   0.00710   0.01489   0.00804   0.00740
 212       12D 0        0.00661  -0.00726   0.01057  -0.00719   0.00618
 213       12D+1        0.00000   0.00000   0.00000   0.00000   0.00000
 214       12D-1        0.00000   0.00000   0.00000   0.00000   0.00000
 215       12D+2        0.00208   0.01908   0.00144  -0.01008  -0.01801
 216       12D-2        0.02229  -0.01996   0.02899  -0.01928   0.01246
 217       13F 0        0.00000   0.00000   0.00000   0.00000   0.00000
 218       13F+1       -0.00057   0.00038   0.00167   0.00114   0.00206
 219       13F-1       -0.00098   0.00086  -0.00197   0.00287   0.00142
 220       13F+2        0.00000   0.00000   0.00000   0.00000   0.00000
 221       13F-2        0.00000   0.00000   0.00000   0.00000   0.00000
 222       13F+3        0.00456  -0.00388   0.00342   0.00363  -0.00285
 223       13F-3        0.00018   0.00101   0.00053   0.00000  -0.00105
 224       14F 0        0.00000   0.00000   0.00000   0.00000   0.00000
 225       14F+1       -0.00072  -0.00208  -0.00145  -0.00271   0.00058
 226       14F-1        0.00307  -0.00605   0.00239  -0.00126   0.00090
 227       14F+2        0.00000   0.00000   0.00000   0.00000   0.00000
 228       14F-2        0.00000   0.00000   0.00000   0.00000   0.00000
 229       14F+3       -0.00585   0.00932  -0.01410   0.01085  -0.00470
 230       14F-3       -0.00426  -0.01078  -0.01999   0.01157  -0.00599
 231 6   H  1S          0.00781   0.01226   0.00470   0.07081   0.04910
 232        2S         -0.00715  -0.02004  -0.01926   0.06948   0.04167
 233        3S         -0.03964  -0.00006  -0.04059  -0.02979   0.01173
 234        4S          0.00384  -0.00148   0.00733  -0.00672   0.00712
[...]
      7  0.523914D-02 -0.415299D-02  0.000000D+00 -0.605173D-01  0.788821D-01
      8 -0.850369D-02 -0.185502D-01  0.000000D+00  0.613204D-01 -0.872492D-02
      9  0.000000D+00  0.000000D+00 -0.423713D-02  0.000000D+00  0.000000D+00
     10 -0.302631D+00  0.316003D+00  0.000000D+00 -0.429421D-01 -0.293770D-01
     11  0.318926D+00 -0.648228D+00  0.000000D+00  0.795705D-02 -0.335355D-02
     12  0.000000D+00  0.000000D+00 -0.532910D-01  0.000000D+00  0.000000D+00
     13  0.550753D-02  0.291027D-01  0.000000D+00 -0.333610D+00  0.128943D-01
     14  0.748723D-02 -0.476157D-01  0.000000D+00 -0.512299D-01 -0.119534D+00
     15  0.000000D+00  0.000000D+00  0.247357D-01  0.000000D+00  0.000000D+00
     16 -0.157481D-01  0.219421D-01  0.000000D+00 -0.218615D-02 -0.316524D-02
     17  0.456350D-01 -0.643661D-02  0.000000D+00 -0.572492D-02 -0.462643D-02
     18  0.000000D+00  0.000000D+00  0.168256D-01  0.000000D+00  0.000000D+00
     19  0.448678D-02  0.112979D-02  0.000000D+00 -0.653132D-01  0.621336D-01
     20  0.380690D-02 -0.356469D-02  0.000000D+00  0.105718D+00 -0.468778D+00
     21  0.000000D+00  0.000000D+00 -0.361310D-02  0.000000D+00  0.000000D+00
                6             7             8             9            10 
      6  0.322768D-01
      7  0.000000D+00  0.299801D+00
      8  0.000000D+00 -0.359009D+00  0.736585D+00
      9  0.122849D-01  0.000000D+00  0.000000D+00  0.281452D-01
     10  0.000000D+00  0.121974D-01  0.365710D-01  0.000000D+00  0.785246D+00
     11  0.000000D+00  0.164384D-02 -0.407958D-01  0.000000D+00 -0.251214D+00
     12  0.210227D-01  0.000000D+00  0.000000D+00  0.267439D-01  0.000000D+00
     13  0.000000D+00 -0.249576D+00  0.274735D+00  0.000000D+00 -0.136671D+00
     14  0.000000D+00  0.286339D+00 -0.675177D+00  0.000000D+00 -0.612195D-01
     15 -0.496841D-01  0.000000D+00  0.000000D+00 -0.651464D-01  0.000000D+00
     16  0.000000D+00  0.328613D-02 -0.432982D-02  0.000000D+00 -0.307660D+00
     17  0.000000D+00  0.360444D-02  0.919547D-03  0.000000D+00 -0.485912D-02
     18 -0.862967D-03  0.000000D+00  0.000000D+00 -0.466026D-02  0.000000D+00
     19  0.000000D+00 -0.104306D-01 -0.784217D-03  0.000000D+00 -0.753937D-02
     20  0.000000D+00 -0.730712D-02  0.574354D-02  0.000000D+00 -0.590407D-02
     21 -0.136182D-01  0.000000D+00  0.000000D+00  0.686975D-02  0.000000D+00
               11            12            13            14            15 
     11  0.851686D+00
     12  0.000000D+00  0.165289D+00
     13 -0.674607D-01  0.000000D+00  0.738390D+00
     14 -0.108019D+00  0.000000D+00 -0.244666D+00  0.952345D+00
     15  0.000000D+00 -0.104342D+00  0.000000D+00  0.000000D+00  0.179714D+00
     16 -0.117802D-01  0.000000D+00 -0.119487D-01  0.110653D-01  0.000000D+00
     17 -0.570654D-01  0.000000D+00 -0.250858D-01  0.694086D-02  0.000000D+00
     18  0.000000D+00 -0.556922D-01  0.000000D+00  0.000000D+00  0.204585D-01
     19  0.192791D-02  0.000000D+00 -0.120914D-01  0.522240D-01  0.000000D+00
     20  0.577557D-02  0.000000D+00  0.204802D-01 -0.893923D-02  0.000000D+00
     21  0.000000D+00  0.269626D-03  0.000000D+00  0.000000D+00 -0.573585D-02
               16            17            18            19            20 
     16  0.333331D+00
     17 -0.140556D-01  0.619141D-01
     18  0.000000D+00  0.000000D+00  0.230953D-01
     19  0.926295D-03  0.486044D-03  0.000000D+00  0.899615D-01
     20  0.323427D-03 -0.164603D-02  0.000000D+00 -0.117117D+00  0.471409D+00
     21  0.000000D+00  0.000000D+00  0.836043D-03  0.000000D+00  0.000000D+00
               21 
     21  0.149917D-01
 FormGI is forming the generalized inverse of G from B-inverse, IUseBI=4.
 Force constants in internal coordinates: 
                1             2             3             4             5 
      1  0.927746D+00
      2  0.107374D-01  0.462670D+00
      3 -0.472105D-02  0.180527D-01  0.503485D+00
      4  0.728773D-02  0.906861D-01 -0.751716D-02  0.938496D+00
      5  0.481111D-01  0.151079D-01 -0.803425D-03  0.399625D-01  0.254695D+00
      6  0.286783D-01  0.698399D-03  0.217686D-03  0.522943D-02  0.611645D-03
      7  0.452502D-02  0.480107D-01  0.374431D-01  0.116989D-01 -0.354701D-02
      8  0.358415D-01 -0.195385D-01  0.173002D-02  0.224189D-01  0.219858D-01
      9  0.954455D-02  0.495584D-02  0.896600D-03 -0.128190D-01 -0.231028D-01
     10 -0.453860D-01  0.145827D-01 -0.262662D-02 -0.959994D-02  0.111698D-02
     11 -0.118507D-01  0.388366D-01 -0.218502D-02  0.186332D-01 -0.308977D-01
     12 -0.116854D-02  0.644730D-02  0.176023D-02 -0.432074D-01  0.393202D-01
     13  0.130192D-01 -0.452839D-01  0.424793D-03  0.245743D-01 -0.842254D-02
     14  0.000000D+00  0.000000D+00  0.000000D+00  0.000000D+00  0.000000D+00
     15  0.000000D+00  0.000000D+00  0.000000D+00  0.000000D+00  0.000000D+00
     16  0.000000D+00  0.000000D+00  0.000000D+00  0.000000D+00  0.000000D+00
     17  0.000000D+00  0.000000D+00  0.000000D+00  0.000000D+00  0.000000D+00
     18  0.000000D+00  0.000000D+00  0.000000D+00  0.000000D+00  0.000000D+00
     19  0.000000D+00  0.000000D+00  0.000000D+00  0.000000D+00  0.000000D+00
                6             7             8             9            10 
      6  0.333999D+00
      7 -0.178143D-02  0.194437D+00
      8 -0.105540D-01 -0.126587D-01  0.160493D+00
      9  0.713063D-03  0.661929D-02 -0.923772D-01  0.118395D+00
     10  0.984096D-02  0.603937D-02 -0.681162D-01 -0.260174D-01  0.941336D-01
     11 -0.110240D-02  0.268031D-01 -0.737543D-02  0.681473D-02  0.560700D-03
     12  0.331396D-02 -0.123775D-01 -0.112840D-01 -0.902735D-02  0.203114D-01
     13 -0.221156D-02 -0.144255D-01  0.186594D-01  0.221262D-02 -0.208721D-01
     14  0.000000D+00  0.000000D+00  0.000000D+00  0.000000D+00  0.000000D+00
     15  0.000000D+00  0.000000D+00  0.000000D+00  0.000000D+00  0.000000D+00
     16  0.000000D+00  0.000000D+00  0.000000D+00  0.000000D+00  0.000000D+00
     17  0.000000D+00  0.000000D+00  0.000000D+00  0.000000D+00  0.000000D+00
     18  0.000000D+00  0.000000D+00  0.000000D+00  0.000000D+00  0.000000D+00
     19  0.000000D+00  0.000000D+00  0.000000D+00  0.000000D+00  0.000000D+00
               11            12            13            14            15 
     11  0.179638D+00
     12 -0.985359D-01  0.172334D+00
     13 -0.811017D-01 -0.737985D-01  0.154900D+00
     14  0.000000D+00  0.000000D+00  0.000000D+00  0.241690D-01
     15  0.000000D+00  0.000000D+00  0.000000D+00  0.107718D-02  0.195089D-01
     16  0.000000D+00  0.000000D+00  0.000000D+00  0.172041D-01 -0.866047D-02
     17  0.000000D+00  0.000000D+00  0.000000D+00 -0.501772D-02  0.907682D-02
     18  0.000000D+00  0.000000D+00  0.000000D+00  0.103198D-01 -0.673762D-02
     19  0.000000D+00  0.000000D+00  0.000000D+00 -0.119020D-01  0.109997D-01
               16            17            18            19 
     16  0.350894D-01
     17  0.101993D-01  0.237628D-01
     18 -0.441430D-02 -0.208291D-01  0.270563D-01
     19 -0.293044D-01 -0.726554D-02  0.106415D-01  0.326804D-01
 Leave Link  716 at Wed Aug 17 13:52:26 2022, MaxMem=   268435456 cpu:         1.2
 (Enter /usr/local/g09_d01_L/g09/l103.exe)

 GradGradGradGradGradGradGradGradGradGradGradGradGradGradGradGradGradGrad
 Berny optimization.
 Red2BG is reusing G-inverse.
 Internal  Forces:  Max     0.000058622 RMS     0.000027705
 Search for a local minimum.
 Step number   1 out of a maximum of    2
 All quantities printed in internal units (Hartrees-Bohrs-Radians)
 Second derivative matrix not updated -- analytic derivatives used.
 The second derivative matrix:
                          R1        R2        R3        R4        R5
           R1           0.92775
           R2           0.01074   0.46267
           R3          -0.00472   0.01805   0.50348
           R4           0.00729   0.09069  -0.00752   0.93850
           R5           0.04811   0.01511  -0.00080   0.03996   0.25469
           R6           0.02868   0.00070   0.00022   0.00523   0.00061
           A1           0.00453   0.04801   0.03744   0.01170  -0.00355
           A2           0.03584  -0.01954   0.00173   0.02242   0.02199
           A3           0.00954   0.00496   0.00090  -0.01282  -0.02310
           A4          -0.04539   0.01458  -0.00263  -0.00960   0.00112
           A5          -0.01185   0.03884  -0.00219   0.01863  -0.03090
           A6          -0.00117   0.00645   0.00176  -0.04321   0.03932
           A7           0.01302  -0.04528   0.00042   0.02457  -0.00842
           D1           0.00000   0.00000   0.00000   0.00000   0.00000
           D2           0.00000   0.00000   0.00000   0.00000   0.00000
           D3           0.00000   0.00000   0.00000   0.00000   0.00000
           D4           0.00000   0.00000   0.00000   0.00000   0.00000
           D5           0.00000   0.00000   0.00000   0.00000   0.00000
           D6           0.00000   0.00000   0.00000   0.00000   0.00000
                          R6        A1        A2        A3        A4
           R6           0.33400
           A1          -0.00178   0.19444
           A2          -0.01055  -0.01266   0.16049
           A3           0.00071   0.00662  -0.09238   0.11839
           A4           0.00984   0.00604  -0.06812  -0.02602   0.09413
           A5          -0.00110   0.02680  -0.00738   0.00681   0.00056
           A6           0.00331  -0.01238  -0.01128  -0.00903   0.02031
           A7          -0.00221  -0.01443   0.01866   0.00221  -0.02087
           D1           0.00000   0.00000   0.00000   0.00000   0.00000
           D2           0.00000   0.00000   0.00000   0.00000   0.00000
           D3           0.00000   0.00000   0.00000   0.00000   0.00000
           D4           0.00000   0.00000   0.00000   0.00000   0.00000
           D5           0.00000   0.00000   0.00000   0.00000   0.00000
           D6           0.00000   0.00000   0.00000   0.00000   0.00000
                          A5        A6        A7        D1        D2
           A5           0.17964
           A6          -0.09854   0.17233
           A7          -0.08110  -0.07380   0.15490
           D1           0.00000   0.00000   0.00000   0.02417
           D2           0.00000   0.00000   0.00000   0.00108   0.01951
           D3           0.00000   0.00000   0.00000   0.01720  -0.00866
           D4           0.00000   0.00000   0.00000  -0.00502   0.00908
           D5           0.00000   0.00000   0.00000   0.01032  -0.00674
           D6           0.00000   0.00000   0.00000  -0.01190   0.01100
                          D3        D4        D5        D6
           D3           0.03509
           D4           0.01020   0.02376
           D5          -0.00441  -0.02083   0.02706
           D6          -0.02930  -0.00727   0.01064   0.03268
 ITU=  0
     Eigenvalues ---    0.00715   0.02404   0.05342   0.07766   0.11697
     Eigenvalues ---    0.17167   0.19054   0.22665   0.24625   0.32255
     Eigenvalues ---    0.33551   0.46475   0.52039   0.93188   0.96826
 Angle between quadratic step and forces=  37.29 degrees.
 Linear search not attempted -- first point.
 Iteration  1 RMS(Cart)=  0.00013827 RMS(Int)=  0.00000001
 Iteration  2 RMS(Cart)=  0.00000001 RMS(Int)=  0.00000000
 ITry= 1 IFail=0 DXMaxC= 4.21D-04 DCOld= 1.00D+10 DXMaxT= 3.00D-01 DXLimC= 3.00D+00 Rises=F
 ClnCor:  largest displacement from symmetrization is 6.88D-10 for atom     7.
 Variable       Old X    -DE/DX   Delta X   Delta X   Delta X     New X
                                 (Linear)    (Quad)   (Total)
    R1        2.26227  -0.00006   0.00000  -0.00007  -0.00007   2.26220
    R2        2.50833  -0.00004   0.00000  -0.00014  -0.00014   2.50819
    R3        1.83425  -0.00001   0.00000  -0.00003  -0.00003   1.83422
    R4        2.25328   0.00005   0.00000   0.00007   0.00007   2.25335
    R5        2.89518  -0.00002   0.00000  -0.00004  -0.00004   2.89514
    R6        2.07636   0.00002   0.00000   0.00006   0.00006   2.07642
    A1        1.89274   0.00002   0.00000   0.00013   0.00013   1.89287
    A2        2.10671  -0.00001   0.00000   0.00002   0.00002   2.10673
    A3        2.16707   0.00003   0.00000   0.00021   0.00021   2.16729
    A4        2.00941  -0.00002   0.00000  -0.00023  -0.00023   2.00917
    A5        2.17850   0.00005   0.00000   0.00017   0.00017   2.17867
    A6        1.98499  -0.00002   0.00000  -0.00001  -0.00001   1.98498
    A7        2.11970  -0.00003   0.00000  -0.00016  -0.00016   2.11954
    D1        3.14159   0.00000   0.00000   0.00000   0.00000   3.14159
    D2        0.00000   0.00000   0.00000   0.00000   0.00000   0.00000
    D3        0.00000   0.00000   0.00000   0.00000   0.00000   0.00000
    D4        3.14159   0.00000   0.00000   0.00000   0.00000   3.14159
    D5        3.14159   0.00000   0.00000   0.00000   0.00000   3.14159
    D6        0.00000   0.00000   0.00000   0.00000   0.00000   0.00000
         Item               Value     Threshold  Converged?
 Maximum Force            0.000059     0.000450     YES
 RMS     Force            0.000028     0.000300     YES
 Maximum Displacement     0.000421     0.001800     YES
 RMS     Displacement     0.000138     0.001200     YES
 Predicted change in Energy=-2.188524D-08
 Optimization completed.
    -- Stationary point found.
                           ----------------------------
                           !   Optimized Parameters   !
                           ! (Angstroms and Degrees)  !
 --------------------------                            --------------------------
 ! Name  Definition              Value          Derivative Info.                !
 --------------------------------------------------------------------------------
 ! R1    R(1,4)                  1.1971         -DE/DX =   -0.0001              !
 ! R2    R(2,5)                  1.3274         -DE/DX =    0.0                 !
 ! R3    R(2,7)                  0.9706         -DE/DX =    0.0                 !
 ! R4    R(3,5)                  1.1924         -DE/DX =    0.0001              !
 ! R5    R(4,5)                  1.5321         -DE/DX =    0.0                 !
 ! R6    R(4,6)                  1.0988         -DE/DX =    0.0                 !
 ! A1    A(5,2,7)              108.4462         -DE/DX =    0.0                 !
 ! A2    A(1,4,5)              120.7054         -DE/DX =    0.0                 !
 ! A3    A(1,4,6)              124.1641         -DE/DX =    0.0                 !
 ! A4    A(5,4,6)              115.1305         -DE/DX =    0.0                 !
 ! A5    A(2,5,3)              124.8191         -DE/DX =    0.0                 !
 ! A6    A(2,5,4)              113.7313         -DE/DX =    0.0                 !
 ! A7    A(3,5,4)              121.4496         -DE/DX =    0.0                 !
 ! D1    D(7,2,5,3)            180.0            -DE/DX =    0.0                 !
 ! D2    D(7,2,5,4)              0.0            -DE/DX =    0.0                 !
 ! D3    D(1,4,5,2)              0.0            -DE/DX =    0.0                 !
 ! D4    D(1,4,5,3)            180.0            -DE/DX =    0.0                 !
 ! D5    D(6,4,5,2)            180.0            -DE/DX =    0.0                 !
 ! D6    D(6,4,5,3)              0.0            -DE/DX =    0.0                 !
 --------------------------------------------------------------------------------
 GradGradGradGradGradGradGradGradGradGradGradGradGradGradGradGradGradGrad

 Leave Link  103 at Wed Aug 17 13:52:26 2022, MaxMem=   268435456 cpu:         0.0
 (Enter /usr/local/g09_d01_L/g09/l9999.exe)

 Test job not archived.
 1\1\GINC-NODE14\Freq\RM062X\Aug-CC-pVTZ\C2H2O3\UCCAOUR\17-Aug-2022\0\\
 #P Geom=AllCheck Guess=TCheck SCRF=Check Test GenChk RM062X/Aug-CC-pVT
 Z Freq\\Glyoxylic Acid. Optimize structure and perform frequency analy
 sis. Structure optimized at M062X/aug-cc-pVTZ level.\\0,1\O,-0.139503,
 -1.793637,0.\O,1.321712,0.457721,0.\O,-0.587792,1.617402,0.\C,-0.74311
 9,-0.75981,0.\C,0.,0.579962,0.\H,-1.839357,-0.685366,0.\H,1.542735,-0.
 487424,0.\\Version=AM64L-G09RevD.01\State=1-A'\HF=-303.0877683\RMSD=1.
 299e-09\RMSF=3.738e-05\ZeroPoint=0.0443633\Thermal=0.0489588\Dipole=-0
 .1229021,-0.760785,0.\DipoleDeriv=-0.5876176,0.1278713,0.0000009,0.110
 0438,-0.9089177,0.0000005,-0.0000012,-0.0000004,-0.3218404,-1.321297,0
 .3012139,-0.0000005,0.0370199,-0.4925152,0.000001,-0.0000006,-0.000000
 3,-0.3588107,-0.7109663,0.1286876,-0.0000002,0.3569239,-0.9797337,0.00
 00006,0.0000046,0.000002,-0.3837176,0.7213521,-0.0544978,-0.0000009,-0
 .1566539,0.9206616,-0.0000001,0.0000029,0.0000013,0.260367,1.5925043,-
 0.4781723,0.0000009,-0.337293,1.0980034,-0.0000012,-0.0000079,-0.00000
 36,0.387731,-0.1092314,-0.0102927,-0.0000007,-0.0069436,0.0305458,-0.0
 000005,0.0000004,0.0000002,0.0921128,0.4152559,-0.01481,0.0000006,-0.0
 030971,0.3319558,-0.0000002,0.0000017,0.0000008,0.3241579\Polar=37.440
 0758,-4.1426418,42.0291416,0.0000063,0.0000137,22.9089276\PG=CS [SG(C2
 H2O3)]\NImag=0\\0.29319766,-0.35861396,0.72502167,-0.00000003,0.000000
 05,0.02099897,0.00994752,-0.00541027,0.,0.49462166,-0.00873763,-0.0006
 2668,0.,-0.11263016,0.60564346,0.,0.00000002,-0.00141915,0.,0.,0.03227
 685,0.00523914,-0.00415299,0.00000001,-0.06051733,0.07888213,0.,0.2998
 0079,-0.00850369,-0.01855016,-0.00000002,0.06132038,-0.00872492,0.,-0.
 35900886,0.73658520,0.00000010,-0.00000019,-0.00423713,0.00000003,-0.0
 0000003,0.01228492,-0.00000003,0.00000005,0.02814524,-0.30263053,0.316
 00265,0.00000006,-0.04294214,-0.02937704,0.00000002,0.01219745,0.03657
 105,-0.00000019,0.78524641,0.31892611,-0.64822780,-0.00000006,0.007957
 05,-0.00335355,-0.00000003,0.00164384,-0.04079579,0.00000022,-0.251213
 99,0.85168637,0.00000005,-0.00000012,-0.05329096,0.00000002,-0.0000000
 3,0.02102268,-0.00000002,0.00000003,0.02674391,-0.00000011,0.00000013,
 0.16528872,0.00550753,0.02910265,-0.00000004,-0.33361040,0.01289430,0.
 ,-0.24957553,0.27473517,0.00000011,-0.13667136,-0.06746073,0.00000006,
 0.73838990,0.00748723,-0.04761572,0.00000004,-0.05122988,-0.11953385,0
 .00000001,0.28633857,-0.67517741,-0.00000013,-0.06121949,-0.10801938,-
 0.00000007,-0.24466573,0.95234475,-0.00000016,0.00000032,0.02473572,-0
 .00000005,0.00000007,-0.04968414,0.00000005,-0.00000009,-0.06514644,0.
 00000032,-0.00000037,-0.10434174,-0.00000018,0.00000021,0.17971395,-0.
 01574810,0.02194213,0.,-0.00218615,-0.00316524,0.,0.00328613,-0.004329
 82,0.00000004,-0.30766046,-0.01178019,0.00000003,-0.01194872,0.0110653
 4,-0.00000008,0.33333100,0.04563503,-0.00643661,0.,-0.00572492,-0.0046
 2643,0.,0.00360444,0.00091955,-0.00000001,-0.00485912,-0.05706542,0.,-
 0.02508584,0.00694086,0.00000002,-0.01405564,0.06191409,0.00000001,-0.
 00000002,0.01682564,0.,0.,-0.00086297,0.,0.,-0.00466026,-0.00000002,0.
 00000002,-0.05569224,0.00000001,-0.00000002,0.02045849,0.,0.,0.0230953
 0,0.00448678,0.00112979,0.00000001,-0.06531315,0.06213363,0.,-0.010430
 64,-0.00078422,-0.00000005,-0.00753937,0.00192791,-0.00000004,-0.01209
 142,0.05222395,0.00000010,0.00092629,0.00048604,0.,0.08996151,0.003806
 90,-0.00356469,-0.00000002,0.10571779,-0.46877803,-0.00000001,-0.00730
 712,0.00574354,0.00000009,-0.00590407,0.00577557,0.00000006,0.02048018
 ,-0.00893923,-0.00000016,0.00032343,-0.00164603,0.,-0.11711710,0.47140
 887,0.00000003,-0.00000007,-0.00361310,0.00000001,-0.00000001,-0.01361
 820,-0.00000001,0.00000002,0.00686975,-0.00000007,0.00000008,0.0002696
 3,0.00000004,-0.00000005,-0.00573585,0.00000002,0.,0.00083604,-0.00000
 002,0.00000003,0.01499172\\0.00001831,-0.00005887,0.,0.00005679,0.0000
 4962,0.,0.00005182,-0.00003241,0.,-0.00004300,0.00006706,0.,-0.0000899
 4,0.00001743,0.,0.00001547,-0.00002968,0.,-0.00000946,-0.00001313,0.\\
 \@


 The best way to pay for a lovely moment is to enjoy it.
 -- Richard Bach
 Job cpu time:       0 days  0 hours 54 minutes 52.6 seconds.
 File lengths (MBytes):  RWF=     50 Int=      0 D2E=      0 Chk=      6 Scr=      1
 Normal termination of Gaussian 09 at Wed Aug 17 13:52:26 2022.
