
Running Job 1 of 2 GA_vibs_m062x_augccpvtz.inp
qchem GA_vibs_m062x_augccpvtz.inp_9710.0 /scr/qchem-uccaour/GA_vibs_m062x_augccpvtz_1/scratch/savename/ 0
/opt/qchem/5.4.1/shmem/exe/qcprog.exe_s GA_vibs_m062x_augccpvtz.inp_9710.0 /scr/qchem-uccaour/GA_vibs_m062x_augccpvtz_1/scratch/savename/
                  Welcome to Q-Chem
     A Quantum Leap Into The Future Of Chemistry


 Q-Chem 5.4, Q-Chem, Inc., Pleasanton, CA (2021)

 License issued to: SRG Graham Worth, University College London

 E. Epifanovsky,  A. T. B. Gilbert,  Xintian Feng,  Joonho Lee,  Yuezhi Mao,  
 N. Mardirossian,  P. Pokhilko,  A. White,  M. Wormit,  M. P. Coons,  
 A. L. Dempwolff,  Zhengting Gan,  D. Hait,  P. R. Horn,  L. D. Jacobson,  
 I. Kaliman,  J. Kussmann,  A. W. Lange,  Ka Un Lao,  D. S. Levine,  Jie Liu,  
 S. C. McKenzie,  A. F. Morrison,  K. Nanda,  F. Plasser,  D. R. Rehn,  
 M. L. Vidal,  Zhi-Qiang You,  Ying Zhu,  B. Alam,  B. Albrecht,  
 A. Aldossary,  E. Alguire,  J. H. Andersen,  D. Barton,  K. Begam,  A. Behn,  
 Y. A. Bernard,  E. J. Berquist,  H. Burton,  A. Carreras,  K. Carter-Fenk,  
 R. Chakraborty,  A. D. Chien,  K. D. Closser,  V. Cofer-Shabica,  
 S. Dasgupta,  Jia Deng,  M. de Wergifosse,  M. Diedenhofen,  Hainam Do,  
 S. Ehlert,  Po-Tung Fang,  S. Fatehi,  Qingguo Feng,  T. Friedhoff,  
 J. Gayvert,  Qinghui Ge,  G. Gidofalvi,  M. Goldey,  J. Gomes,  
 C. Gonzalez-Espinoza,  S. Gulania,  A. Gunina,  M. W. D. Hanson-Heine,  
 P. H. P. Harbach,  A. W. Hauser,  M. F. Herbst,  M. Hernandez Vera,  
 M. Hodecker,  Z. C. Holden,  S. Houck,  Xunkun Huang,  Kerwin Hui,  
 B. C. Huynh,  M. Ivanov,  Hyunjun Ji,  Hanjie Jiang,  B. Kaduk,  S. Kaehler,  
 K. Khistyaev,  Jaehoon Kim,  P. Klunzinger,  Z. Koczor-Benda,  
 Joong Hoon Koh,  D. Kosenkov,  L. Koulias,  T. Kowalczyk,  C. M. Krauter,  
 K. Kue,  A. Kunitsa,  T. Kus,  A. Landau,  K. V. Lawler,  D. Lefrancois,  
 S. Lehtola,  Rain Li,  Yi-Pei Li,  Jiashu Liang,  M. Liebenthal,  
 Hung-Hsuan Lin,  You-Sheng Lin,  Fenglai Liu,  Kuan-Yu Liu,  
 M. Loipersberger,  A. Luenser,  A. Manjanath,  P. Manohar,  E. Mansoor,  
 S. F. Manzer,  Shan-Ping Mao,  A. V. Marenich,  T. Markovich,  S. Mason,  
 S. A. Maurer,  P. F. McLaughlin,  M. F. S. J. Menger,  J.-M. Mewes,  
 S. A. Mewes,  P. Morgante,  J. W. Mullinax,  K. J. Oosterbaan,  G. Paran,  
 Alexander C. Paul,  Suranjan K. Paul,  F. Pavosevic,  Zheng Pei,  S. Prager,  
 E. I. Proynov,  E. Ramos,  B. Rana,  A. E. Rask,  A. Rettig,  R. M. Richard,  
 F. Rob,  E. Rossomme,  T. Scheele,  M. Scheurer,  M. Schneider,  
 N. Sergueev,  S. M. Sharada,  W. Skomorowski,  D. W. Small,  C. J. Stein,  
 Yu-Chuan Su,  E. J. Sundstrom,  Zhen Tao,  J. Thirman,  T. Tsuchimochi,  
 N. M. Tubman,  S. P. Veccham,  O. Vydrov,  J. Wenzel,  J. Witte,  A. Yamada,  
 Kun Yao,  S. Yeganeh,  S. R. Yost,  A. Zech,  Igor Ying Zhang,  Xing Zhang,  
 Yu Zhang,  D. Zuev,  A. Aspuru-Guzik,  A. T. Bell,  N. A. Besley,  
 K. B. Bravaya,  B. R. Brooks,  D. Casanova,  Jeng-Da Chai,  S. Coriani,  
 C. J. Cramer,  A. E. DePrince, III,  R. A. DiStasio Jr.,  A. Dreuw,  
 B. D. Dunietz,  T. R. Furlani,  W. A. Goddard III,  S. Grimme,  
 S. Hammes-Schiffer,  T. Head-Gordon,  W. J. Hehre,  Chao-Ping Hsu,  
 T.-C. Jagau,  Yousung Jung,  A. Klamt,  Jing Kong,  D. S. Lambrecht,  
 WanZhen Liang,  N. J. Mayhall,  C. W. McCurdy,  J. B. Neaton,  
 C. Ochsenfeld,  J. A. Parkhill,  R. Peverati,  V. A. Rassolov,  Yihan Shao,  
 L. V. Slipchenko,  T. Stauch,  R. P. Steele,  J. E. Subotnik,  
 A. J. W. Thom,  A. Tkatchenko,  D. G. Truhlar,  T. Van Voorhis,  
 T. A. Wesolowski,  K. B. Whaley,  H. L. Woodcock III,  P. M. Zimmerman,  
 S. Faraji,  P. M. W. Gill,  M. Head-Gordon,  J. M. Herbert,  A. I. Krylov

 Additional authors for Version 5.4.1: 
 S. Kotaru,  Shaozhi Li,  Xiangyuan Li,  F. Matz,  A. Molle,  Haisheng Ren,  
 Yingli Su,  Hung-Yi Tsai,  C. Utku,  Fang Wang

 Contributors to earlier versions of Q-Chem not listed above: 
 R. D. Adamson,  B. Austin,  R. Baer,  J. Baker,  G. J. O. Beran,  
 K. Brandhorst,  S. T. Brown,  E. F. C. Byrd,  A. K. Chakraborty,  
 G. K. L. Chan,  Chun-Min Chang,  Yunqing Chen,  C.-L. Cheng,  
 Siu Hung Chien,  D. M. Chipman,  D. L. Crittenden,  H. Dachsel,  
 R. J. Doerksen,  A. D. Dutoi,  R. G. Edgar,  J. Fosso-Tande,  
 L. Fusti-Molnar,  D. Ghosh,  A. Ghysels,  A. Golubeva-Zadorozhnaya,  
 J. Gonthier,  M. S. Gordon,  S. R. Gwaltney,  G. Hawkins,  J. E. Herr,  
 A. Heyden,  S. Hirata,  E. G. Hohenstein,  G. Kedziora,  F. J. Keil,  
 C. Kelley,  Jihan Kim,  R. A. King,  R. Z. Khaliullin,  P. P. Korambath,  
 W. Kurlancheek,  A. Laurent,  A. M. Lee,  M. S. Lee,  S. V. Levchenko,  
 Ching Yeh Lin,  D. Liotard,  E. Livshits,  R. C. Lochan,  I. Lotan,  
 L. A. Martinez-Martinez,  P. E. Maslen,  N. Nair,  D. P. O'Neill,  
 D. Neuhauser,  E. Neuscamman,  C. M. Oana,  R. Olivares-Amaya,  R. Olson,  
 T. M. Perrine,  B. Peters,  P. A. Pieniazek,  A. Prociuk,  Y. M. Rhee,  
 J. Ritchie,  M. A. Rohrdanz,  E. Rosta,  N. J. Russ,  H. F. Schaefer III,  
 M. W. Schmidt,  N. E. Schultz,  S. Sharma,  N. Shenvi,  C. D. Sherrill,  
 A. C. Simmonett,  A. Sodt,  T. Stein,  D. Stuck,  K. S. Thanthiriwatte,  
 V. Vanovschi,  L. Vogt,  Tao Wang,  A. Warshel,  M. A. Watson,  
 C. F. Williams,  Q. Wu,  X. Xu,  Jun Yang,  W. Zhang,  Yan Zhao

 Please cite Q-Chem as follows:
 Y. Shao et al., Mol. Phys. 113, 184-215 (2015)
 DOI: 10.1080/00268976.2014.952696

 Q-Chem 5.4.1 for Intel X86 EM64T Linux

 Parts of Q-Chem use Armadillo 9.800.1 (Horizon Scraper).
 http://arma.sourceforge.net/

 Q-Chem begins on Tue Aug 16 17:00:46 2022  

 Host: 
0

     Scratch files written to /scr/qchem-uccaour/GA_vibs_m062x_augccpvtz_1/scratch/savename//
 Aug1521 |scratch|qcdevops|jenkins|workspace|build_RNUM 7245   
 Processing $rem in /opt/qchem/5.4.1/shmem/config/preferences:
 Processing $rem in /home/uccaour/.qchemrc:

 Checking the input file for inconsistencies... 	...done.

--------------------------------------------------------------
User input:
--------------------------------------------------------------
$molecule
0 1
O       -0.139633   -1.792147    0.000000
O        1.321504    0.453499    0.000000
O       -0.586336    1.618709    0.000000
C       -0.743036   -0.757841    0.000000
C        0.000000    0.580527    0.000000
H       -1.839463   -0.682934    0.000000
H        1.533400   -0.493672    0.000000
$end

$rem
JOBTYPE    opt
METHOD     M062X
BASIS      aug-CC-pVTZ
$end

--------------------------------------------------------------
 ----------------------------------------------------------------
             Standard Nuclear Orientation (Angstroms)
    I     Atom           X                Y                Z
 ----------------------------------------------------------------
    1      O       1.7968471897     0.0512663630    -0.0000000000
    2      O      -0.5911257759     1.2659401488    -0.0000000000
    3      O      -1.5473768787    -0.7547408350     0.0000000000
    4      C       0.8323863770    -0.6584514844     0.0000000000
    5      C      -0.5772514634    -0.0615825208     0.0000000000
    6      H       0.8742113603    -1.7566381241     0.0000000000
    7      H       0.3282228776     1.5771167406    -0.0000000000
 ----------------------------------------------------------------
 Molecular Point Group                 Cs    NOp =  2
 Largest Abelian Subgroup              Cs    NOp =  2
 Nuclear Repulsion Energy =         163.97900563 hartrees
 There are       19 alpha and       19 beta electrons
 Requested basis set is aug-cc-pVTZ
 There are 88 shells and 276 basis functions

 Total QAlloc Memory Limit   2000 MB
 Mega-Array Size       188 MB
 MEM_STATIC part       192 MB
 A cutoff of  1.0D-11 yielded   3875 shell pairs
 There are     38239 function pairs (     53132 Cartesian)
 Smallest overlap matrix eigenvalue = 2.45E-05

 Scale SEOQF with 1.000000e-01/1.000000e-01/1.000000e-01

 Standard Electronic Orientation quadrupole field applied
 Nucleus-field energy     =     0.0000000038 hartrees
 Guess from superposition of atomic densities
 Warning:  Energy on first SCF cycle will be non-variational
 SAD guess density has 38.000000 electrons

 -----------------------------------------------------------------------
  General SCF calculation program by
  Eric Jon Sundstrom, Paul Horn, Yuezhi Mao, Dmitri Zuev, Alec White,
  David Stuck, Shaama M.S., Shane Yost, Joonho Lee, David Small,
  Daniel Levine, Susi Lehtola, Hugh Burton, Evgeny Epifanovsky,
  Bang C. Huynh
 -----------------------------------------------------------------------
 Exchange:     0.5400 Hartree-Fock + 1.0000 M06-2X
 Correlation:  1.0000 M06-2X
 Using SG-3 standard quadrature grid
 using 15 threads for integral computing
 -------------------------------------------------------
 OpenMP Integral computing Module                
 Release: version 1.0, May 2013, Q-Chem Inc. Pittsburgh 
 -------------------------------------------------------
 A restricted SCF calculation will be
 performed using DIIS
 SCF converges when DIIS error is below 1.0e-08
 ---------------------------------------
  Cycle       Energy         DIIS error
 ---------------------------------------
    1    -304.1028835749      2.74e-02  
    2    -302.9491889183      4.28e-03  
    3    -302.7941924101      6.73e-03  
    4    -303.0850980146      4.80e-04  
    5    -303.0860140344      3.60e-04  
    6    -303.0868134878      5.52e-05  
    7    -303.0868404033      2.69e-05  
    8    -303.0868452331      1.45e-05  
    9    -303.0868468044      3.05e-06  
   10    -303.0868468956      5.40e-07  
   11    -303.0868468994      1.57e-07  
   12    -303.0868468998      3.15e-08  
   13    -303.0868468996      6.28e-09  Convergence criterion met
 ---------------------------------------
 SCF time:   CPU 1585.66s  wall 106.00s 
 SCF   energy in the final basis set =     -303.0868468996
 Total energy in the final basis set =     -303.0868468996
 
 --------------------------------------------------------------
             Orbital Energies (a.u.) and Symmetries
 --------------------------------------------------------------
 
 Alpha MOs, Restricted
 -- Occupied --                  
-19.701 -19.693 -19.653 -10.706 -10.682  -1.276  -1.235  -1.185
  1 A'    2 A'    3 A'    4 A'    5 A'    6 A'    7 A'    8 A'                 
 -0.814  -0.728  -0.666  -0.600  -0.580  -0.564  -0.511  -0.509
  9 A'   10 A'   11 A'   12 A'    1 A"   13 A'   14 A'    2 A"                 
 -0.443  -0.429  -0.367
 15 A'    3 A"   16 A'                                                         
 -- Virtual --                   
 -0.071  -0.009   0.007   0.029   0.030   0.055   0.061   0.063
  4 A"   17 A'   18 A'   19 A'    5 A"   20 A'   21 A'    6 A"                 
  0.068   0.078   0.090   0.100   0.115   0.122   0.136   0.146
 22 A'    7 A"   23 A'   24 A'    8 A"   25 A'   26 A'   27 A'                 
  0.157   0.168   0.176   0.192   0.194   0.204   0.209   0.220
  9 A"   28 A'   29 A'   30 A'   10 A"   31 A'   32 A'   11 A"                 
  0.225   0.243   0.246   0.273   0.275   0.315   0.317   0.328
 33 A'   34 A'   12 A"   35 A'   36 A'   37 A'   38 A'   13 A"                 
  0.333   0.334   0.341   0.366   0.372   0.381   0.405   0.416
 39 A'   14 A"   40 A'   15 A"   41 A'   42 A'   43 A'   16 A"                 
  0.429   0.449   0.470   0.480   0.498   0.517   0.537   0.547
 44 A'   45 A'   46 A'   17 A"   47 A'   18 A"   48 A'   49 A'                 
  0.557   0.588   0.600   0.619   0.629   0.641   0.654   0.671
 50 A'   51 A'   19 A"   52 A'   20 A"   53 A'   54 A'   55 A'                 
  0.705   0.708   0.731   0.733   0.735   0.743   0.779   0.789
 56 A'   21 A"   57 A'   22 A"   58 A'   23 A"   24 A"   59 A'                 
  0.804   0.820   0.831   0.837   0.842   0.864   0.876   0.885
 60 A'   25 A"   26 A"   61 A'   62 A'   27 A"   63 A'   64 A'                 
  0.900   0.905   0.910   0.921   0.970   0.975   0.981   1.004
 65 A'   28 A"   66 A'   67 A'   68 A'   69 A'   29 A"   30 A"                 
  1.015   1.048   1.070   1.102   1.104   1.125   1.150   1.168
 70 A'   31 A"   71 A'   32 A"   72 A'   73 A'   33 A"   74 A'                 
  1.179   1.191   1.237   1.255   1.262   1.274   1.294   1.298
 75 A'   34 A"   76 A'   77 A'   35 A"   78 A'   79 A'   36 A"                 
  1.314   1.372   1.375   1.431   1.431   1.457   1.471   1.507
 80 A'   81 A'   37 A"   38 A"   82 A'   39 A"   83 A'   84 A'                 
  1.519   1.565   1.605   1.613   1.639   1.648   1.669   1.681
 40 A"   85 A'   86 A'   87 A'   88 A'   89 A'   41 A"   90 A'                 
  1.691   1.781   1.824   1.834   1.869   1.918   1.998   2.025
 42 A"   91 A'   92 A'   43 A"   93 A'   94 A'   95 A'   44 A"                 
  2.042   2.053   2.110   2.132   2.134   2.139   2.181   2.198
 45 A"   96 A'   46 A"   97 A'   47 A"   98 A'   99 A'   48 A"                 
  2.205   2.221   2.245   2.261   2.282   2.285   2.335   2.342
100 A'  101 A'   49 A"  102 A'   50 A"  103 A'  104 A'   51 A"                 
  2.363   2.392   2.419   2.454   2.497   2.513   2.529   2.533
 52 A"  105 A'  106 A'  107 A'  108 A'  109 A'   53 A"  110 A'                 
  2.570   2.571   2.605   2.642   2.663   2.678   2.680   2.739
111 A'   54 A"   55 A"  112 A'   56 A"  113 A'   57 A"   58 A"                 
  2.741   2.758   2.814   2.875   2.918   2.948   2.964   3.002
114 A'  115 A'   59 A"  116 A'   60 A"  117 A'  118 A'   61 A"                 
  3.019   3.100   3.122   3.158   3.168   3.185   3.235   3.312
119 A'  120 A'   62 A"  121 A'   63 A"  122 A'  123 A'  124 A'                 
  3.379   3.392   3.437   3.466   3.530   3.539   3.555   3.615
125 A'   64 A"  126 A'  127 A'  128 A'   65 A"   66 A"   67 A"                 
  3.647   3.695   3.774   3.784   3.836   3.900   3.900   3.926
129 A'  130 A'  131 A'   68 A"  132 A'  133 A'   69 A"   70 A"                 
  3.981   3.988   4.018   4.090   4.099   4.174   4.201   4.312
134 A'   71 A"  135 A'   72 A"  136 A'   73 A"  137 A'  138 A'                 
  4.329   4.356   4.410   4.452   4.453   4.576   4.626   4.673
 74 A"  139 A'  140 A'  141 A'   75 A"  142 A'  143 A'  144 A'                 
  4.706   4.755   4.759   4.851   4.871   4.924   5.037   5.041
 76 A"   77 A"  145 A'  146 A'   78 A"  147 A'  148 A'   79 A"                 
  5.099   5.221   5.360   5.625   5.790   5.853   5.961   6.070
149 A'  150 A'  151 A'  152 A'  153 A'  154 A'  155 A'  156 A'                 
  6.149   6.194   6.194   6.303   6.317   6.382   6.389   6.419
 80 A"  157 A'   81 A"  158 A'   82 A"   83 A"  159 A'   84 A"                 
  6.472   6.513   6.537   6.592   6.636   6.653   6.673   6.717
160 A'   85 A"  161 A'   86 A"   87 A"  162 A'   88 A"   89 A"                 
  6.718   6.800   6.811   6.849   6.865   6.929   6.968   6.994
163 A'  164 A'   90 A"   91 A"  165 A'  166 A'   92 A"  167 A'                 
  7.023   7.051   7.061   7.079   7.199   7.249   7.323   7.353
168 A'  169 A'   93 A"   94 A"  170 A'  171 A'  172 A'  173 A'                 
  7.390   7.451   7.789   7.929  13.971  14.706  15.480  16.448
174 A'  175 A'  176 A'  177 A'  178 A'  179 A'  180 A'  181 A'                 
 17.684
182 A'                                                                         
 
 Beta MOs, Restricted
 -- Occupied --                  
-19.701 -19.693 -19.653 -10.706 -10.682  -1.276  -1.235  -1.185
  1 A'    2 A'    3 A'    4 A'    5 A'    6 A'    7 A'    8 A'                 
 -0.814  -0.728  -0.666  -0.600  -0.580  -0.564  -0.511  -0.509
  9 A'   10 A'   11 A'   12 A'    1 A"   13 A'   14 A'    2 A"                 
 -0.443  -0.429  -0.367
 15 A'    3 A"   16 A'                                                         
 -- Virtual --                   
 -0.071  -0.009   0.007   0.029   0.030   0.055   0.061   0.063
  4 A"   17 A'   18 A'   19 A'    5 A"   20 A'   21 A'    6 A"                 
  0.068   0.078   0.090   0.100   0.115   0.122   0.136   0.146
 22 A'    7 A"   23 A'   24 A'    8 A"   25 A'   26 A'   27 A'                 
  0.157   0.168   0.176   0.192   0.194   0.204   0.209   0.220
  9 A"   28 A'   29 A'   30 A'   10 A"   31 A'   32 A'   11 A"                 
  0.225   0.243   0.246   0.273   0.275   0.315   0.317   0.328
 33 A'   34 A'   12 A"   35 A'   36 A'   37 A'   38 A'   13 A"                 
  0.333   0.334   0.341   0.366   0.372   0.381   0.405   0.416
 39 A'   14 A"   40 A'   15 A"   41 A'   42 A'   43 A'   16 A"                 
  0.429   0.449   0.470   0.480   0.498   0.517   0.537   0.547
 44 A'   45 A'   46 A'   17 A"   47 A'   18 A"   48 A'   49 A'                 
  0.557   0.588   0.600   0.619   0.629   0.641   0.654   0.671
 50 A'   51 A'   19 A"   52 A'   20 A"   53 A'   54 A'   55 A'                 
  0.705   0.708   0.731   0.733   0.735   0.743   0.779   0.789
 56 A'   21 A"   57 A'   22 A"   58 A'   23 A"   24 A"   59 A'                 
  0.804   0.820   0.831   0.837   0.842   0.864   0.876   0.885
 60 A'   25 A"   26 A"   61 A'   62 A'   27 A"   63 A'   64 A'                 
  0.900   0.905   0.910   0.921   0.970   0.975   0.981   1.004
 65 A'   28 A"   66 A'   67 A'   68 A'   69 A'   29 A"   30 A"                 
  1.015   1.048   1.070   1.102   1.104   1.125   1.150   1.168
 70 A'   31 A"   71 A'   32 A"   72 A'   73 A'   33 A"   74 A'                 
  1.179   1.191   1.237   1.255   1.262   1.274   1.294   1.298
 75 A'   34 A"   76 A'   77 A'   35 A"   78 A'   79 A'   36 A"                 
  1.314   1.372   1.375   1.431   1.431   1.457   1.471   1.507
 80 A'   81 A'   37 A"   38 A"   82 A'   39 A"   83 A'   84 A'                 
  1.519   1.565   1.605   1.613   1.639   1.648   1.669   1.681
 40 A"   85 A'   86 A'   87 A'   88 A'   89 A'   41 A"   90 A'                 
  1.691   1.781   1.824   1.834   1.869   1.918   1.998   2.025
 42 A"   91 A'   92 A'   43 A"   93 A'   94 A'   95 A'   44 A"                 
  2.042   2.053   2.110   2.132   2.134   2.139   2.181   2.198
 45 A"   96 A'   46 A"   97 A'   47 A"   98 A'   99 A'   48 A"                 
  2.205   2.221   2.245   2.261   2.282   2.285   2.335   2.342
100 A'  101 A'   49 A"  102 A'   50 A"  103 A'  104 A'   51 A"                 
  2.363   2.392   2.419   2.454   2.497   2.513   2.529   2.533
 52 A"  105 A'  106 A'  107 A'  108 A'  109 A'   53 A"  110 A'                 
  2.570   2.571   2.605   2.642   2.663   2.678   2.680   2.739
111 A'   54 A"   55 A"  112 A'   56 A"  113 A'   57 A"   58 A"                 
  2.741   2.758   2.814   2.875   2.918   2.948   2.964   3.002
114 A'  115 A'   59 A"  116 A'   60 A"  117 A'  118 A'   61 A"                 
  3.019   3.100   3.122   3.158   3.168   3.185   3.235   3.312
119 A'  120 A'   62 A"  121 A'   63 A"  122 A'  123 A'  124 A'                 
  3.379   3.392   3.437   3.466   3.530   3.539   3.555   3.615
125 A'   64 A"  126 A'  127 A'  128 A'   65 A"   66 A"   67 A"                 
  3.647   3.695   3.774   3.784   3.836   3.900   3.900   3.926
129 A'  130 A'  131 A'   68 A"  132 A'  133 A'   69 A"   70 A"                 
  3.981   3.988   4.018   4.090   4.099   4.174   4.201   4.312
134 A'   71 A"  135 A'   72 A"  136 A'   73 A"  137 A'  138 A'                 
  4.329   4.356   4.410   4.452   4.453   4.576   4.626   4.673
 74 A"  139 A'  140 A'  141 A'   75 A"  142 A'  143 A'  144 A'                 
  4.706   4.755   4.759   4.851   4.871   4.924   5.037   5.041
 76 A"   77 A"  145 A'  146 A'   78 A"  147 A'  148 A'   79 A"                 
  5.099   5.221   5.360   5.625   5.790   5.853   5.961   6.070
149 A'  150 A'  151 A'  152 A'  153 A'  154 A'  155 A'  156 A'                 
  6.149   6.194   6.194   6.303   6.317   6.382   6.389   6.419
 80 A"  157 A'   81 A"  158 A'   82 A"   83 A"  159 A'   84 A"                 
  6.472   6.513   6.537   6.592   6.636   6.653   6.673   6.717
160 A'   85 A"  161 A'   86 A"   87 A"  162 A'   88 A"   89 A"                 
  6.718   6.800   6.811   6.849   6.865   6.929   6.968   6.994
163 A'  164 A'   90 A"   91 A"  165 A'  166 A'   92 A"  167 A'                 
  7.023   7.051   7.061   7.079   7.199   7.249   7.323   7.353
168 A'  169 A'   93 A"   94 A"  170 A'  171 A'  172 A'  173 A'                 
  7.390   7.451   7.789   7.929  13.971  14.706  15.480  16.448
174 A'  175 A'  176 A'  177 A'  178 A'  179 A'  180 A'  181 A'                 
 17.684
182 A'                                                                         
 --------------------------------------------------------------
 
          Ground-State Mulliken Net Atomic Charges

     Atom                 Charge (a.u.)
  ----------------------------------------
      1 O                    -0.643934
      2 O                    -0.390448
      3 O                    -0.605293
      4 C                     0.078996
      5 C                     0.723113
      6 H                     0.528881
      7 H                     0.308684
  ----------------------------------------
  Sum of atomic charges =     0.000000

 -----------------------------------------------------------------
                    Cartesian Multipole Moments
 -----------------------------------------------------------------
    Charge (ESU x 10^10)
                 0.0000
    Dipole Moment (Debye)
         X       1.9582      Y      -0.1262      Z      -0.0000
       Tot       1.9623
    Quadrupole Moments (Debye-Ang)
        XX     -36.1827     XY      -1.4411     YY     -25.7899
        XZ       0.0000     YZ       0.0000     ZZ     -26.7372
    Octopole Moments (Debye-Ang^2)
       XXX      -2.4984    XXY       2.2428    XYY       8.2022
       YYY       3.8086    XXZ      -0.0000    XYZ       0.0000
       YYZ      -0.0000    XZZ       0.1656    YZZ       0.4288
       ZZZ      -0.0000
    Hexadecapole Moments (Debye-Ang^3)
      XXXX    -289.5515   XXXY      -3.8980   XXYY     -66.6836
      XYYY       2.0049   YYYY    -118.3611   XXXZ      -0.0000
      XXYZ       0.0000   XYYZ      -0.0000   YYYZ       0.0000
      XXZZ     -45.6802   XYZZ       0.5484   YYZZ     -26.1701
      XZZZ       0.0000   YZZZ       0.0000   ZZZZ     -22.8338
 -----------------------------------------------------------------
 Calculating analytic gradient of the SCF energy
 Gradient of SCF Energy
            1           2           3           4           5           6
    1   0.0002700   0.0002058   0.0002645  -0.0007021   0.0001788  -0.0001346
    2   0.0002050   0.0004751   0.0000726   0.0004197  -0.0006951   0.0001341
    3  -0.0000000  -0.0000000   0.0000000  -0.0000000  -0.0000000   0.0000000
            7
    1  -0.0000824
    2  -0.0006113
    3  -0.0000000
 Max gradient component =       7.021E-04
 RMS gradient           =       3.131E-04
 Gradient time:  CPU 494.32 s  wall 33.31 s
 Geometry Optimization Parameters
   NAtoms,    NIC,     NZ,  NCons,   NDum,   NFix, NCnnct, MaxDiis
        7      33       0       0       0       0       0       0


** GEOMETRY OPTIMIZATION IN DELOCALIZED INTERNAL COORDINATES **
   Searching for a Minimum

   Optimization Cycle:   1

                       Coordinates (Angstroms)
     ATOM                X               Y               Z
      1  O         1.7968471897    0.0512663630    0.0000000000
      2  O        -0.5911257759    1.2659401488    0.0000000000
      3  O        -1.5473768787   -0.7547408350    0.0000000000
      4  C         0.8323863770   -0.6584514844    0.0000000000
      5  C        -0.5772514634   -0.0615825208    0.0000000000
      6  H         0.8742113603   -1.7566381241    0.0000000000
      7  H         0.3282228776    1.5771167406    0.0000000000
   Point Group: cs    Number of degrees of freedom:    11


   Energy is   -303.086846900


 Attempting to generate delocalized internal coordinates
 Initial Hessian constructed with Jon Baker's OPTIMIZE code

 11 Hessian modes will be used to form the next step
  Hessian Eigenvalues:
     0.160000    0.160000    0.220000    0.250000    0.250000    0.293502
     0.337949    0.532579    0.600773    1.061154    1.087821

 Minimum search - taking simple RFO step
 Searching for Lamda that Minimizes Along All modes
 Value Taken    Lamda =  -0.00001344
 Step Taken.  Stepsize is  0.008153

                             Maximum     Tolerance    Cnvgd?
         Gradient           0.001268      0.000300      NO
         Displacement       0.005848      0.001200      NO
         Energy change     *********      0.000001      NO


 New Cartesian Coordinates Obtained by Inverse Iteration

 Displacement from previous Coordinates is:  0.019999
 ----------------------------------------------------------------
             Standard Nuclear Orientation (Angstroms)
    I     Atom           X                Y                Z
 ----------------------------------------------------------------
    1      O       1.7987875517     0.0475110583     0.0000000000
    2      O      -0.5925489210     1.2663087158     0.0000000000
    3      O      -1.5469147594    -0.7541890809     0.0000000000
    4      C       0.8336223165    -0.6609634105     0.0000000000
    5      C      -0.5764362025    -0.0613095356     0.0000000000
    6      H       0.8748742078    -1.7593890231     0.0000000000
    7      H       0.3245294935     1.5849415641     0.0000000000
 ----------------------------------------------------------------
 Molecular Point Group                 Cs    NOp =  2
 Largest Abelian Subgroup              Cs    NOp =  2
 Nuclear Repulsion Energy =         163.89472851 hartrees
 There are       19 alpha and       19 beta electrons
 Applying Cartesian multipole field
    Component          Value
    ---------          -----
     (2,0,0)        1.00000E-11
     (0,2,0)        2.00000E-11
     (0,0,2)       -3.00000E-11
 Nucleus-field energy     =     0.0000000038 hartrees
 Requested basis set is aug-cc-pVTZ
 There are 88 shells and 276 basis functions
 A cutoff of  1.0D-11 yielded   3875 shell pairs
 There are     38239 function pairs (     53132 Cartesian)
 Smallest overlap matrix eigenvalue = 2.46E-05
 Guess MOs from SCF MO coefficient file

 -----------------------------------------------------------------------
  General SCF calculation program by
  Eric Jon Sundstrom, Paul Horn, Yuezhi Mao, Dmitri Zuev, Alec White,
  David Stuck, Shaama M.S., Shane Yost, Joonho Lee, David Small,
  Daniel Levine, Susi Lehtola, Hugh Burton, Evgeny Epifanovsky,
  Bang C. Huynh
 -----------------------------------------------------------------------
 Exchange:     0.5400 Hartree-Fock + 1.0000 M06-2X
 Correlation:  1.0000 M06-2X
 Using SG-3 standard quadrature grid
 A restricted SCF calculation will be
 performed using DIIS
 SCF converges when DIIS error is below 1.0e-08
 ---------------------------------------
  Cycle       Energy         DIIS error
 ---------------------------------------
    1    -303.0868404825      3.85e-05  
    2    -303.0868520818      6.24e-06  
    3    -303.0868523024      6.39e-06  
    4    -303.0868525583      1.50e-06  
    5    -303.0868525735      5.87e-07  
    6    -303.0868525757      1.60e-07  
    7    -303.0868525758      4.61e-08  
    8    -303.0868525759      1.14e-08  
    9    -303.0868525758      4.42e-09  Convergence criterion met
 ---------------------------------------
 SCF time:   CPU 1017.93s  wall 69.00s 
 SCF   energy in the final basis set =     -303.0868525758
 Total energy in the final basis set =     -303.0868525758
 
 --------------------------------------------------------------
             Orbital Energies (a.u.) and Symmetries
 --------------------------------------------------------------
 
 Alpha MOs, Restricted
 -- Occupied --                  
-19.701 -19.693 -19.653 -10.706 -10.682  -1.275  -1.235  -1.185
  1 A'    2 A'    3 A'    4 A'    5 A'    6 A'    7 A'    8 A'                 
 -0.813  -0.728  -0.666  -0.600  -0.580  -0.564  -0.511  -0.509
  9 A'   10 A'   11 A'   12 A'    1 A"   13 A'   14 A'    2 A"                 
 -0.443  -0.429  -0.367
 15 A'    3 A"   16 A'                                                         
 -- Virtual --                   
 -0.071  -0.009   0.007   0.029   0.030   0.055   0.061   0.063
  4 A"   17 A'   18 A'   19 A'    5 A"   20 A'   21 A'    6 A"                 
  0.068   0.078   0.090   0.100   0.115   0.122   0.136   0.146
 22 A'    7 A"   23 A'   24 A'    8 A"   25 A'   26 A'   27 A'                 
  0.157   0.168   0.176   0.192   0.194   0.204   0.208   0.220
  9 A"   28 A'   29 A'   30 A'   10 A"   31 A'   32 A'   11 A"                 
  0.225   0.243   0.246   0.273   0.275   0.315   0.317   0.329
 33 A'   34 A'   12 A"   35 A'   36 A'   37 A'   38 A'   13 A"                 
  0.333   0.334   0.341   0.366   0.372   0.381   0.405   0.416
 39 A'   14 A"   40 A'   15 A"   41 A'   42 A'   43 A'   16 A"                 
  0.429   0.449   0.470   0.480   0.498   0.517   0.537   0.547
 44 A'   45 A'   46 A'   17 A"   47 A'   18 A"   48 A'   49 A'                 
  0.557   0.588   0.600   0.618   0.629   0.641   0.655   0.671
 50 A'   51 A'   19 A"   52 A'   20 A"   53 A'   54 A'   55 A'                 
  0.705   0.707   0.730   0.733   0.734   0.743   0.779   0.789
 56 A'   21 A"   57 A'   22 A"   58 A'   23 A"   24 A"   59 A'                 
  0.805   0.820   0.831   0.836   0.842   0.864   0.876   0.884
 60 A'   25 A"   26 A"   61 A'   62 A'   27 A"   63 A'   64 A'                 
  0.900   0.905   0.910   0.921   0.970   0.974   0.980   1.003
 65 A'   28 A"   66 A'   67 A'   68 A'   69 A'   29 A"   30 A"                 
  1.014   1.048   1.069   1.102   1.104   1.126   1.150   1.168
 70 A'   31 A"   71 A'   32 A"   72 A'   73 A'   33 A"   74 A'                 
  1.180   1.191   1.236   1.255   1.261   1.274   1.295   1.297
 75 A'   34 A"   76 A'   77 A'   35 A"   78 A'   79 A'   36 A"                 
  1.313   1.373   1.375   1.430   1.430   1.457   1.472   1.507
 80 A'   81 A'   37 A"   82 A'   38 A"   39 A"   83 A'   84 A'                 
  1.519   1.565   1.603   1.613   1.639   1.647   1.668   1.680
 40 A"   85 A'   86 A'   87 A'   88 A'   89 A'   41 A"   90 A'                 
  1.692   1.782   1.823   1.834   1.869   1.916   1.996   2.025
 42 A"   91 A'   92 A'   43 A"   93 A'   94 A'   95 A'   44 A"                 
  2.042   2.054   2.109   2.131   2.133   2.139   2.181   2.197
 45 A"   96 A'   46 A"   97 A'   47 A"   98 A'   99 A'   48 A"                 
  2.205   2.221   2.245   2.260   2.280   2.284   2.334   2.342
100 A'  101 A'   49 A"  102 A'   50 A"  103 A'  104 A'   51 A"                 
  2.363   2.391   2.419   2.452   2.496   2.514   2.530   2.533
 52 A"  105 A'  106 A'  107 A'  108 A'  109 A'   53 A"  110 A'                 
  2.569   2.570   2.606   2.642   2.663   2.679   2.680   2.738
111 A'   54 A"   55 A"  112 A'   56 A"  113 A'   57 A"   58 A"                 
  2.740   2.758   2.814   2.875   2.918   2.948   2.964   3.003
114 A'  115 A'   59 A"  116 A'   60 A"  117 A'  118 A'   61 A"                 
  3.018   3.097   3.122   3.158   3.168   3.185   3.235   3.312
119 A'  120 A'   62 A"  121 A'   63 A"  122 A'  123 A'  124 A'                 
  3.378   3.392   3.436   3.468   3.528   3.539   3.554   3.615
125 A'   64 A"  126 A'  127 A'  128 A'   65 A"   66 A"   67 A"                 
  3.647   3.693   3.774   3.784   3.836   3.900   3.901   3.925
129 A'  130 A'  131 A'   68 A"  132 A'   69 A"  133 A'   70 A"                 
  3.979   3.988   4.020   4.090   4.098   4.174   4.200   4.312
134 A'   71 A"  135 A'   72 A"  136 A'   73 A"  137 A'  138 A'                 
  4.329   4.356   4.412   4.450   4.452   4.575   4.623   4.671
 74 A"  139 A'  140 A'  141 A'   75 A"  142 A'  143 A'  144 A'                 
  4.705   4.755   4.756   4.851   4.872   4.925   5.037   5.040
 76 A"   77 A"  145 A'  146 A'   78 A"  147 A'  148 A'   79 A"                 
  5.098   5.219   5.361   5.622   5.789   5.850   5.959   6.071
149 A'  150 A'  151 A'  152 A'  153 A'  154 A'  155 A'  156 A'                 
  6.149   6.193   6.193   6.300   6.317   6.381   6.389   6.419
 80 A"   81 A"  157 A'  158 A'   82 A"   83 A"  159 A'   84 A"                 
  6.472   6.513   6.535   6.592   6.635   6.653   6.672   6.717
160 A'   85 A"  161 A'   86 A"   87 A"  162 A'   88 A"   89 A"                 
  6.718   6.799   6.811   6.848   6.864   6.929   6.968   6.992
163 A'  164 A'   90 A"   91 A"  165 A'  166 A'   92 A"  167 A'                 
  7.023   7.050   7.060   7.078   7.197   7.250   7.323   7.351
168 A'  169 A'   93 A"   94 A"  170 A'  171 A'  172 A'  173 A'                 
  7.388   7.451   7.784   7.931  13.956  14.706  15.469  16.443
174 A'  175 A'  176 A'  177 A'  178 A'  179 A'  180 A'  181 A'                 
 17.675
182 A'                                                                         
 
 Beta MOs, Restricted
 -- Occupied --                  
-19.701 -19.693 -19.653 -10.706 -10.682  -1.275  -1.235  -1.185
  1 A'    2 A'    3 A'    4 A'    5 A'    6 A'    7 A'    8 A'                 
 -0.813  -0.728  -0.666  -0.600  -0.580  -0.564  -0.511  -0.509
  9 A'   10 A'   11 A'   12 A'    1 A"   13 A'   14 A'    2 A"                 
 -0.443  -0.429  -0.367
 15 A'    3 A"   16 A'                                                         
 -- Virtual --                   
 -0.071  -0.009   0.007   0.029   0.030   0.055   0.061   0.063
  4 A"   17 A'   18 A'   19 A'    5 A"   20 A'   21 A'    6 A"                 
  0.068   0.078   0.090   0.100   0.115   0.122   0.136   0.146
 22 A'    7 A"   23 A'   24 A'    8 A"   25 A'   26 A'   27 A'                 
  0.157   0.168   0.176   0.192   0.194   0.204   0.208   0.220
  9 A"   28 A'   29 A'   30 A'   10 A"   31 A'   32 A'   11 A"                 
  0.225   0.243   0.246   0.273   0.275   0.315   0.317   0.329
 33 A'   34 A'   12 A"   35 A'   36 A'   37 A'   38 A'   13 A"                 
  0.333   0.334   0.341   0.366   0.372   0.381   0.405   0.416
 39 A'   14 A"   40 A'   15 A"   41 A'   42 A'   43 A'   16 A"                 
  0.429   0.449   0.470   0.480   0.498   0.517   0.537   0.547
 44 A'   45 A'   46 A'   17 A"   47 A'   18 A"   48 A'   49 A'                 
  0.557   0.588   0.600   0.618   0.629   0.641   0.655   0.671
 50 A'   51 A'   19 A"   52 A'   20 A"   53 A'   54 A'   55 A'                 
  0.705   0.707   0.730   0.733   0.734   0.743   0.779   0.789
 56 A'   21 A"   57 A'   22 A"   58 A'   23 A"   24 A"   59 A'                 
  0.805   0.820   0.831   0.836   0.842   0.864   0.876   0.884
 60 A'   25 A"   26 A"   61 A'   62 A'   27 A"   63 A'   64 A'                 
  0.900   0.905   0.910   0.921   0.970   0.974   0.980   1.003
 65 A'   28 A"   66 A'   67 A'   68 A'   69 A'   29 A"   30 A"                 
  1.014   1.048   1.069   1.102   1.104   1.126   1.150   1.168
 70 A'   31 A"   71 A'   32 A"   72 A'   73 A'   33 A"   74 A'                 
  1.180   1.191   1.236   1.255   1.261   1.274   1.295   1.297
 75 A'   34 A"   76 A'   77 A'   35 A"   78 A'   79 A'   36 A"                 
  1.313   1.373   1.375   1.430   1.430   1.457   1.472   1.507
 80 A'   81 A'   37 A"   82 A'   38 A"   39 A"   83 A'   84 A'                 
  1.519   1.565   1.603   1.613   1.639   1.647   1.668   1.680
 40 A"   85 A'   86 A'   87 A'   88 A'   89 A'   41 A"   90 A'                 
  1.692   1.782   1.823   1.834   1.869   1.916   1.996   2.025
 42 A"   91 A'   92 A'   43 A"   93 A'   94 A'   95 A'   44 A"                 
  2.042   2.054   2.109   2.131   2.133   2.139   2.181   2.197
 45 A"   96 A'   46 A"   97 A'   47 A"   98 A'   99 A'   48 A"                 
  2.205   2.221   2.245   2.260   2.280   2.284   2.334   2.342
100 A'  101 A'   49 A"  102 A'   50 A"  103 A'  104 A'   51 A"                 
  2.363   2.391   2.419   2.452   2.496   2.514   2.530   2.533
 52 A"  105 A'  106 A'  107 A'  108 A'  109 A'   53 A"  110 A'                 
  2.569   2.570   2.606   2.642   2.663   2.679   2.680   2.738
111 A'   54 A"   55 A"  112 A'   56 A"  113 A'   57 A"   58 A"                 
  2.740   2.758   2.814   2.875   2.918   2.948   2.964   3.003
114 A'  115 A'   59 A"  116 A'   60 A"  117 A'  118 A'   61 A"                 
  3.018   3.097   3.122   3.158   3.168   3.185   3.235   3.312
119 A'  120 A'   62 A"  121 A'   63 A"  122 A'  123 A'  124 A'                 
  3.378   3.392   3.436   3.468   3.528   3.539   3.554   3.615
125 A'   64 A"  126 A'  127 A'  128 A'   65 A"   66 A"   67 A"                 
  3.647   3.693   3.774   3.784   3.836   3.900   3.901   3.925
129 A'  130 A'  131 A'   68 A"  132 A'   69 A"  133 A'   70 A"                 
  3.979   3.988   4.020   4.090   4.098   4.174   4.200   4.312
134 A'   71 A"  135 A'   72 A"  136 A'   73 A"  137 A'  138 A'                 
  4.329   4.356   4.412   4.450   4.452   4.575   4.623   4.671
 74 A"  139 A'  140 A'  141 A'   75 A"  142 A'  143 A'  144 A'                 
  4.705   4.755   4.756   4.851   4.872   4.925   5.037   5.040
 76 A"   77 A"  145 A'  146 A'   78 A"  147 A'  148 A'   79 A"                 
  5.098   5.219   5.361   5.622   5.789   5.850   5.959   6.071
149 A'  150 A'  151 A'  152 A'  153 A'  154 A'  155 A'  156 A'                 
  6.149   6.193   6.193   6.300   6.317   6.381   6.389   6.419
 80 A"   81 A"  157 A'  158 A'   82 A"   83 A"  159 A'   84 A"                 
  6.472   6.513   6.535   6.592   6.635   6.653   6.672   6.717
160 A'   85 A"  161 A'   86 A"   87 A"  162 A'   88 A"   89 A"                 
  6.718   6.799   6.811   6.848   6.864   6.929   6.968   6.992
163 A'  164 A'   90 A"   91 A"  165 A'  166 A'   92 A"  167 A'                 
  7.023   7.050   7.060   7.078   7.197   7.250   7.323   7.351
168 A'  169 A'   93 A"   94 A"  170 A'  171 A'  172 A'  173 A'                 
  7.388   7.451   7.784   7.931  13.956  14.706  15.469  16.443
174 A'  175 A'  176 A'  177 A'  178 A'  179 A'  180 A'  181 A'                 
 17.675
182 A'                                                                         
 --------------------------------------------------------------
 
          Ground-State Mulliken Net Atomic Charges

     Atom                 Charge (a.u.)
  ----------------------------------------
      1 O                    -0.643087
      2 O                    -0.389527
      3 O                    -0.605303
      4 C                     0.079990
      5 C                     0.722715
      6 H                     0.528360
      7 H                     0.306853
  ----------------------------------------
  Sum of atomic charges =     0.000000

 -----------------------------------------------------------------
                    Cartesian Multipole Moments
 -----------------------------------------------------------------
    Charge (ESU x 10^10)
                 0.0000
    Dipole Moment (Debye)
         X       1.9563      Y      -0.1094      Z       0.0000
       Tot       1.9594
    Quadrupole Moments (Debye-Ang)
        XX     -36.2098     XY      -1.4327     YY     -25.7311
        XZ       0.0000     YZ       0.0000     ZZ     -26.7416
    Octopole Moments (Debye-Ang^2)
       XXX      -2.5719    XXY       2.2604    XYY       8.2116
       YYY       3.9889    XXZ       0.0000    XYZ       0.0000
       YYZ       0.0000    XZZ       0.1529    YZZ       0.4531
       ZZZ       0.0000
    Hexadecapole Moments (Debye-Ang^3)
      XXXX    -289.9528   XXXY      -3.6251   XXYY     -66.7744
      XYYY       2.2392   YYYY    -118.2378   XXXZ       0.0000
      XXYZ       0.0000   XYYZ       0.0000   YYYZ       0.0000
      XXZZ     -45.7319   XYZZ       0.6220   YYZZ     -26.2073
      XZZZ       0.0000   YZZZ       0.0000   ZZZZ     -22.8427
 -----------------------------------------------------------------
 Calculating analytic gradient of the SCF energy
 Gradient of SCF Energy
            1           2           3           4           5           6
    1   0.0001229  -0.0001610   0.0000816  -0.0001716  -0.0001463   0.0000800
    2   0.0000965   0.0001931  -0.0000200  -0.0002485  -0.0001813  -0.0000057
    3   0.0000000  -0.0000000  -0.0000000  -0.0000000   0.0000000   0.0000000
            7
    1   0.0001944
    2   0.0001660
    3   0.0000000
 Max gradient component =       2.485E-04
 RMS gradient           =       1.219E-04
 Gradient time:  CPU 491.94 s  wall 33.28 s
 Geometry Optimization Parameters
   NAtoms,    NIC,     NZ,  NCons,   NDum,   NFix, NCnnct, MaxDiis
        7      33       0       0       0       0       0       0

 Cartesian Hessian Update
 Hessian updated using BFGS update


** GEOMETRY OPTIMIZATION IN DELOCALIZED INTERNAL COORDINATES **
   Searching for a Minimum

   Optimization Cycle:   2

                       Coordinates (Angstroms)
     ATOM                X               Y               Z
      1  O         1.7987875517    0.0475110583    0.0000000000
      2  O        -0.5925489210    1.2663087158    0.0000000000
      3  O        -1.5469147594   -0.7541890809    0.0000000000
      4  C         0.8336223165   -0.6609634105    0.0000000000
      5  C        -0.5764362025   -0.0613095356    0.0000000000
      6  H         0.8748742078   -1.7593890231    0.0000000000
      7  H         0.3245294935    1.5849415641    0.0000000000
   Point Group: cs    Number of degrees of freedom:    11


   Energy is   -303.086852576

 Hessian updated using BFGS update

 11 Hessian modes will be used to form the next step
  Hessian Eigenvalues:
     0.157769    0.173744    0.220676    0.243165    0.259711    0.296746
     0.337882    0.542793    0.624253    1.054786    1.086128

 Minimum search - taking simple RFO step
 Searching for Lamda that Minimizes Along All modes
 Value Taken    Lamda =  -0.00000061
 Step Taken.  Stepsize is  0.001309

                             Maximum     Tolerance    Cnvgd?
         Gradient           0.000266      0.000300     YES
         Displacement       0.000774      0.001200     YES
         Energy change     -0.000006      0.000001      NO


                       Distance Matrix (Angstroms)
             O (  1)   O (  2)   O (  3)   C (  4)   C (  5)   H (  6)
   O (  2)  2.684019
   O (  3)  3.440414  2.234553
   C (  4)  1.197280  2.397570  2.382362
   C (  5)  2.377715  1.327716  1.192439  1.532269
   H (  6)  2.029410  3.362763  2.622115  1.099200  2.233781
   H (  7)  2.130054  0.970855  2.995636  2.302882  1.876668  3.389311

 
 Final energy is   -303.086852575803     


 ******************************
 **  OPTIMIZATION CONVERGED  **
 ******************************

                       Coordinates (Angstroms)
     ATOM                X               Y               Z
      1  O         1.7987875517    0.0475110583    0.0000000000
      2  O        -0.5925489210    1.2663087158    0.0000000000
      3  O        -1.5469147594   -0.7541890809    0.0000000000
      4  C         0.8336223165   -0.6609634105    0.0000000000
      5  C        -0.5764362025   -0.0613095356    0.0000000000
      6  H         0.8748742078   -1.7593890231    0.0000000000
      7  H         0.3245294935    1.5849415641    0.0000000000

Z-matrix Print:
$molecule
0 1
C 
O  1 1.192439
O  1 1.327716 2 124.829849
H  3 0.970855 1 108.464107 2 -180.000000 0
C  1 1.532269 2 121.436276 3 -180.000000 0
H  5 1.099200 1 115.189294 2 -0.000000 0
O  5 1.197280 1 120.681130 2 -180.000000 0
$end

 
 --------------------------------------------------------------
             Orbital Energies (a.u.) and Symmetries
 --------------------------------------------------------------
 
 Alpha MOs, Restricted
 -- Occupied --                  
-19.701 -19.693 -19.653 -10.706 -10.682  -1.275  -1.235  -1.185
  1 A'    2 A'    3 A'    4 A'    5 A'    6 A'    7 A'    8 A'                 
 -0.813  -0.728  -0.666  -0.600  -0.580  -0.564  -0.511  -0.509
  9 A'   10 A'   11 A'   12 A'    1 A"   13 A'   14 A'    2 A"                 
 -0.443  -0.429  -0.367
 15 A'    3 A"   16 A'                                                         
 -- Virtual --                   
 -0.071  -0.009   0.007   0.029   0.030   0.055   0.061   0.063
  4 A"   17 A'   18 A'   19 A'    5 A"   20 A'   21 A'    6 A"                 
  0.068   0.078   0.090   0.100   0.115   0.122   0.136   0.146
 22 A'    7 A"   23 A'   24 A'    8 A"   25 A'   26 A'   27 A'                 
  0.157   0.168   0.176   0.192   0.194   0.204   0.208   0.220
  9 A"   28 A'   29 A'   30 A'   10 A"   31 A'   32 A'   11 A"                 
  0.225   0.243   0.246   0.273   0.275   0.315   0.317   0.329
 33 A'   34 A'   12 A"   35 A'   36 A'   37 A'   38 A'   13 A"                 
  0.333   0.334   0.341   0.366   0.372   0.381   0.405   0.416
 39 A'   14 A"   40 A'   15 A"   41 A'   42 A'   43 A'   16 A"                 
  0.429   0.449   0.470   0.480   0.498   0.517   0.537   0.547
 44 A'   45 A'   46 A'   17 A"   47 A'   18 A"   48 A'   49 A'                 
  0.557   0.588   0.600   0.618   0.629   0.641   0.655   0.671
 50 A'   51 A'   19 A"   52 A'   20 A"   53 A'   54 A'   55 A'                 
  0.705   0.707   0.730   0.733   0.734   0.743   0.779   0.789
 56 A'   21 A"   57 A'   22 A"   58 A'   23 A"   24 A"   59 A'                 
  0.805   0.820   0.831   0.836   0.842   0.864   0.876   0.884
 60 A'   25 A"   26 A"   61 A'   62 A'   27 A"   63 A'   64 A'                 
  0.900   0.905   0.910   0.921   0.970   0.974   0.980   1.003
 65 A'   28 A"   66 A'   67 A'   68 A'   69 A'   29 A"   30 A"                 
  1.014   1.048   1.069   1.102   1.104   1.126   1.150   1.168
 70 A'   31 A"   71 A'   32 A"   72 A'   73 A'   33 A"   74 A'                 
  1.180   1.191   1.236   1.255   1.261   1.274   1.295   1.297
 75 A'   34 A"   76 A'   77 A'   35 A"   78 A'   79 A'   36 A"                 
  1.313   1.373   1.375   1.430   1.430   1.457   1.472   1.507
 80 A'   81 A'   37 A"   82 A'   38 A"   39 A"   83 A'   84 A'                 
  1.519   1.565   1.603   1.613   1.639   1.647   1.668   1.680
 40 A"   85 A'   86 A'   87 A'   88 A'   89 A'   41 A"   90 A'                 
  1.692   1.782   1.823   1.834   1.869   1.916   1.996   2.025
 42 A"   91 A'   92 A'   43 A"   93 A'   94 A'   95 A'   44 A"                 
  2.042   2.054   2.109   2.131   2.133   2.139   2.181   2.197
 45 A"   96 A'   46 A"   97 A'   47 A"   98 A'   99 A'   48 A"                 
  2.205   2.221   2.245   2.260   2.280   2.284   2.334   2.342
100 A'  101 A'   49 A"  102 A'   50 A"  103 A'  104 A'   51 A"                 
  2.363   2.391   2.419   2.452   2.496   2.514   2.530   2.533
 52 A"  105 A'  106 A'  107 A'  108 A'  109 A'   53 A"  110 A'                 
  2.569   2.570   2.606   2.642   2.663   2.679   2.680   2.738
111 A'   54 A"   55 A"  112 A'   56 A"  113 A'   57 A"   58 A"                 
  2.740   2.758   2.814   2.875   2.918   2.948   2.964   3.003
114 A'  115 A'   59 A"  116 A'   60 A"  117 A'  118 A'   61 A"                 
  3.018   3.097   3.122   3.158   3.168   3.185   3.235   3.312
119 A'  120 A'   62 A"  121 A'   63 A"  122 A'  123 A'  124 A'                 
  3.378   3.392   3.436   3.468   3.528   3.539   3.554   3.615
125 A'   64 A"  126 A'  127 A'  128 A'   65 A"   66 A"   67 A"                 
  3.647   3.693   3.774   3.784   3.836   3.900   3.901   3.925
129 A'  130 A'  131 A'   68 A"  132 A'   69 A"  133 A'   70 A"                 
  3.979   3.988   4.020   4.090   4.098   4.174   4.200   4.312
134 A'   71 A"  135 A'   72 A"  136 A'   73 A"  137 A'  138 A'                 
  4.329   4.356   4.412   4.450   4.452   4.575   4.623   4.671
 74 A"  139 A'  140 A'  141 A'   75 A"  142 A'  143 A'  144 A'                 
  4.705   4.755   4.756   4.851   4.872   4.925   5.037   5.040
 76 A"   77 A"  145 A'  146 A'   78 A"  147 A'  148 A'   79 A"                 
  5.098   5.219   5.361   5.622   5.789   5.850   5.959   6.071
149 A'  150 A'  151 A'  152 A'  153 A'  154 A'  155 A'  156 A'                 
  6.149   6.193   6.193   6.300   6.317   6.381   6.389   6.419
 80 A"   81 A"  157 A'  158 A'   82 A"   83 A"  159 A'   84 A"                 
  6.472   6.513   6.535   6.592   6.635   6.653   6.672   6.717
160 A'   85 A"  161 A'   86 A"   87 A"  162 A'   88 A"   89 A"                 
  6.718   6.799   6.811   6.848   6.864   6.929   6.968   6.992
163 A'  164 A'   90 A"   91 A"  165 A'  166 A'   92 A"  167 A'                 
  7.023   7.050   7.060   7.078   7.197   7.250   7.323   7.351
168 A'  169 A'   93 A"   94 A"  170 A'  171 A'  172 A'  173 A'                 
  7.388   7.451   7.784   7.931  13.956  14.706  15.469  16.443
174 A'  175 A'  176 A'  177 A'  178 A'  179 A'  180 A'  181 A'                 
 17.675
182 A'                                                                         
 
 Beta MOs, Restricted
 -- Occupied --                  
-19.701 -19.693 -19.653 -10.706 -10.682  -1.275  -1.235  -1.185
  1 A'    2 A'    3 A'    4 A'    5 A'    6 A'    7 A'    8 A'                 
 -0.813  -0.728  -0.666  -0.600  -0.580  -0.564  -0.511  -0.509
  9 A'   10 A'   11 A'   12 A'    1 A"   13 A'   14 A'    2 A"                 
 -0.443  -0.429  -0.367
 15 A'    3 A"   16 A'                                                         
 -- Virtual --                   
 -0.071  -0.009   0.007   0.029   0.030   0.055   0.061   0.063
  4 A"   17 A'   18 A'   19 A'    5 A"   20 A'   21 A'    6 A"                 
  0.068   0.078   0.090   0.100   0.115   0.122   0.136   0.146
 22 A'    7 A"   23 A'   24 A'    8 A"   25 A'   26 A'   27 A'                 
  0.157   0.168   0.176   0.192   0.194   0.204   0.208   0.220
  9 A"   28 A'   29 A'   30 A'   10 A"   31 A'   32 A'   11 A"                 
  0.225   0.243   0.246   0.273   0.275   0.315   0.317   0.329
 33 A'   34 A'   12 A"   35 A'   36 A'   37 A'   38 A'   13 A"                 
  0.333   0.334   0.341   0.366   0.372   0.381   0.405   0.416
 39 A'   14 A"   40 A'   15 A"   41 A'   42 A'   43 A'   16 A"                 
  0.429   0.449   0.470   0.480   0.498   0.517   0.537   0.547
 44 A'   45 A'   46 A'   17 A"   47 A'   18 A"   48 A'   49 A'                 
  0.557   0.588   0.600   0.618   0.629   0.641   0.655   0.671
 50 A'   51 A'   19 A"   52 A'   20 A"   53 A'   54 A'   55 A'                 
  0.705   0.707   0.730   0.733   0.734   0.743   0.779   0.789
 56 A'   21 A"   57 A'   22 A"   58 A'   23 A"   24 A"   59 A'                 
  0.805   0.820   0.831   0.836   0.842   0.864   0.876   0.884
 60 A'   25 A"   26 A"   61 A'   62 A'   27 A"   63 A'   64 A'                 
  0.900   0.905   0.910   0.921   0.970   0.974   0.980   1.003
 65 A'   28 A"   66 A'   67 A'   68 A'   69 A'   29 A"   30 A"                 
  1.014   1.048   1.069   1.102   1.104   1.126   1.150   1.168
 70 A'   31 A"   71 A'   32 A"   72 A'   73 A'   33 A"   74 A'                 
  1.180   1.191   1.236   1.255   1.261   1.274   1.295   1.297
 75 A'   34 A"   76 A'   77 A'   35 A"   78 A'   79 A'   36 A"                 
  1.313   1.373   1.375   1.430   1.430   1.457   1.472   1.507
 80 A'   81 A'   37 A"   82 A'   38 A"   39 A"   83 A'   84 A'                 
  1.519   1.565   1.603   1.613   1.639   1.647   1.668   1.680
 40 A"   85 A'   86 A'   87 A'   88 A'   89 A'   41 A"   90 A'                 
  1.692   1.782   1.823   1.834   1.869   1.916   1.996   2.025
 42 A"   91 A'   92 A'   43 A"   93 A'   94 A'   95 A'   44 A"                 
  2.042   2.054   2.109   2.131   2.133   2.139   2.181   2.197
 45 A"   96 A'   46 A"   97 A'   47 A"   98 A'   99 A'   48 A"                 
  2.205   2.221   2.245   2.260   2.280   2.284   2.334   2.342
100 A'  101 A'   49 A"  102 A'   50 A"  103 A'  104 A'   51 A"                 
  2.363   2.391   2.419   2.452   2.496   2.514   2.530   2.533
 52 A"  105 A'  106 A'  107 A'  108 A'  109 A'   53 A"  110 A'                 
  2.569   2.570   2.606   2.642   2.663   2.679   2.680   2.738
111 A'   54 A"   55 A"  112 A'   56 A"  113 A'   57 A"   58 A"                 
  2.740   2.758   2.814   2.875   2.918   2.948   2.964   3.003
114 A'  115 A'   59 A"  116 A'   60 A"  117 A'  118 A'   61 A"                 
  3.018   3.097   3.122   3.158   3.168   3.185   3.235   3.312
119 A'  120 A'   62 A"  121 A'   63 A"  122 A'  123 A'  124 A'                 
  3.378   3.392   3.436   3.468   3.528   3.539   3.554   3.615
125 A'   64 A"  126 A'  127 A'  128 A'   65 A"   66 A"   67 A"                 
  3.647   3.693   3.774   3.784   3.836   3.900   3.901   3.925
129 A'  130 A'  131 A'   68 A"  132 A'   69 A"  133 A'   70 A"                 
  3.979   3.988   4.020   4.090   4.098   4.174   4.200   4.312
134 A'   71 A"  135 A'   72 A"  136 A'   73 A"  137 A'  138 A'                 
  4.329   4.356   4.412   4.450   4.452   4.575   4.623   4.671
 74 A"  139 A'  140 A'  141 A'   75 A"  142 A'  143 A'  144 A'                 
  4.705   4.755   4.756   4.851   4.872   4.925   5.037   5.040
 76 A"   77 A"  145 A'  146 A'   78 A"  147 A'  148 A'   79 A"                 
  5.098   5.219   5.361   5.622   5.789   5.850   5.959   6.071
149 A'  150 A'  151 A'  152 A'  153 A'  154 A'  155 A'  156 A'                 
  6.149   6.193   6.193   6.300   6.317   6.381   6.389   6.419
 80 A"   81 A"  157 A'  158 A'   82 A"   83 A"  159 A'   84 A"                 
  6.472   6.513   6.535   6.592   6.635   6.653   6.672   6.717
160 A'   85 A"  161 A'   86 A"   87 A"  162 A'   88 A"   89 A"                 
  6.718   6.799   6.811   6.848   6.864   6.929   6.968   6.992
163 A'  164 A'   90 A"   91 A"  165 A'  166 A'   92 A"  167 A'                 
  7.023   7.050   7.060   7.078   7.197   7.250   7.323   7.351
168 A'  169 A'   93 A"   94 A"  170 A'  171 A'  172 A'  173 A'                 
  7.388   7.451   7.784   7.931  13.956  14.706  15.469  16.443
174 A'  175 A'  176 A'  177 A'  178 A'  179 A'  180 A'  181 A'                 
 17.675
182 A'                                                                         
 --------------------------------------------------------------
 
          Ground-State Mulliken Net Atomic Charges

     Atom                 Charge (a.u.)
  ----------------------------------------
      1 O                    -0.643087
      2 O                    -0.389527
      3 O                    -0.605303
      4 C                     0.079990
      5 C                     0.722715
      6 H                     0.528360
      7 H                     0.306853
  ----------------------------------------
  Sum of atomic charges =     0.000000

 -----------------------------------------------------------------
                    Cartesian Multipole Moments
 -----------------------------------------------------------------
    Charge (ESU x 10^10)
                 0.0000
    Dipole Moment (Debye)
         X       1.9563      Y      -0.1094      Z       0.0000
       Tot       1.9594
    Quadrupole Moments (Debye-Ang)
        XX     -36.2098     XY      -1.4327     YY     -25.7311
        XZ       0.0000     YZ       0.0000     ZZ     -26.7416
    Octopole Moments (Debye-Ang^2)
       XXX      -2.5719    XXY       2.2604    XYY       8.2116
       YYY       3.9889    XXZ       0.0000    XYZ       0.0000
       YYZ       0.0000    XZZ       0.1529    YZZ       0.4531
       ZZZ       0.0000
    Hexadecapole Moments (Debye-Ang^3)
      XXXX    -289.9528   XXXY      -3.6251   XXYY     -66.7744
      XYYY       2.2392   YYYY    -118.2378   XXXZ       0.0000
      XXYZ       0.0000   XYYZ       0.0000   YYYZ       0.0000
      XXZZ     -45.7319   XYZZ       0.6220   YYZZ     -26.2073
      XZZZ       0.0000   YZZZ       0.0000   ZZZZ     -22.8427
 -----------------------------------------------------------------
 Total job time:  243.72s(wall), 3612.61s(cpu) 
 Tue Aug 16 17:04:50 2022

        *************************************************************
        *                                                           *
        *  Thank you very much for using Q-Chem.  Have a nice day.  *
        *                                                           *
        *************************************************************



Running Job 2 of 2 GA_vibs_m062x_augccpvtz.inp
qchem GA_vibs_m062x_augccpvtz.inp_9710.1 /scr/qchem-uccaour/GA_vibs_m062x_augccpvtz_1/scratch/savename/ 0
/opt/qchem/5.4.1/shmem/exe/qcprog.exe_s GA_vibs_m062x_augccpvtz.inp_9710.1 /scr/qchem-uccaour/GA_vibs_m062x_augccpvtz_1/scratch/savename/
                  Welcome to Q-Chem
     A Quantum Leap Into The Future Of Chemistry


 Q-Chem 5.4, Q-Chem, Inc., Pleasanton, CA (2021)

 License issued to: SRG Graham Worth, University College London

 E. Epifanovsky,  A. T. B. Gilbert,  Xintian Feng,  Joonho Lee,  Yuezhi Mao,  
 N. Mardirossian,  P. Pokhilko,  A. White,  M. Wormit,  M. P. Coons,  
 A. L. Dempwolff,  Zhengting Gan,  D. Hait,  P. R. Horn,  L. D. Jacobson,  
 I. Kaliman,  J. Kussmann,  A. W. Lange,  Ka Un Lao,  D. S. Levine,  Jie Liu,  
 S. C. McKenzie,  A. F. Morrison,  K. Nanda,  F. Plasser,  D. R. Rehn,  
 M. L. Vidal,  Zhi-Qiang You,  Ying Zhu,  B. Alam,  B. Albrecht,  
 A. Aldossary,  E. Alguire,  J. H. Andersen,  D. Barton,  K. Begam,  A. Behn,  
 Y. A. Bernard,  E. J. Berquist,  H. Burton,  A. Carreras,  K. Carter-Fenk,  
 R. Chakraborty,  A. D. Chien,  K. D. Closser,  V. Cofer-Shabica,  
 S. Dasgupta,  Jia Deng,  M. de Wergifosse,  M. Diedenhofen,  Hainam Do,  
 S. Ehlert,  Po-Tung Fang,  S. Fatehi,  Qingguo Feng,  T. Friedhoff,  
 J. Gayvert,  Qinghui Ge,  G. Gidofalvi,  M. Goldey,  J. Gomes,  
 C. Gonzalez-Espinoza,  S. Gulania,  A. Gunina,  M. W. D. Hanson-Heine,  
 P. H. P. Harbach,  A. W. Hauser,  M. F. Herbst,  M. Hernandez Vera,  
 M. Hodecker,  Z. C. Holden,  S. Houck,  Xunkun Huang,  Kerwin Hui,  
 B. C. Huynh,  M. Ivanov,  Hyunjun Ji,  Hanjie Jiang,  B. Kaduk,  S. Kaehler,  
 K. Khistyaev,  Jaehoon Kim,  P. Klunzinger,  Z. Koczor-Benda,  
 Joong Hoon Koh,  D. Kosenkov,  L. Koulias,  T. Kowalczyk,  C. M. Krauter,  
 K. Kue,  A. Kunitsa,  T. Kus,  A. Landau,  K. V. Lawler,  D. Lefrancois,  
 S. Lehtola,  Rain Li,  Yi-Pei Li,  Jiashu Liang,  M. Liebenthal,  
 Hung-Hsuan Lin,  You-Sheng Lin,  Fenglai Liu,  Kuan-Yu Liu,  
 M. Loipersberger,  A. Luenser,  A. Manjanath,  P. Manohar,  E. Mansoor,  
 S. F. Manzer,  Shan-Ping Mao,  A. V. Marenich,  T. Markovich,  S. Mason,  
 S. A. Maurer,  P. F. McLaughlin,  M. F. S. J. Menger,  J.-M. Mewes,  
 S. A. Mewes,  P. Morgante,  J. W. Mullinax,  K. J. Oosterbaan,  G. Paran,  
 Alexander C. Paul,  Suranjan K. Paul,  F. Pavosevic,  Zheng Pei,  S. Prager,  
 E. I. Proynov,  E. Ramos,  B. Rana,  A. E. Rask,  A. Rettig,  R. M. Richard,  
 F. Rob,  E. Rossomme,  T. Scheele,  M. Scheurer,  M. Schneider,  
 N. Sergueev,  S. M. Sharada,  W. Skomorowski,  D. W. Small,  C. J. Stein,  
 Yu-Chuan Su,  E. J. Sundstrom,  Zhen Tao,  J. Thirman,  T. Tsuchimochi,  
 N. M. Tubman,  S. P. Veccham,  O. Vydrov,  J. Wenzel,  J. Witte,  A. Yamada,  
 Kun Yao,  S. Yeganeh,  S. R. Yost,  A. Zech,  Igor Ying Zhang,  Xing Zhang,  
 Yu Zhang,  D. Zuev,  A. Aspuru-Guzik,  A. T. Bell,  N. A. Besley,  
 K. B. Bravaya,  B. R. Brooks,  D. Casanova,  Jeng-Da Chai,  S. Coriani,  
 C. J. Cramer,  A. E. DePrince, III,  R. A. DiStasio Jr.,  A. Dreuw,  
 B. D. Dunietz,  T. R. Furlani,  W. A. Goddard III,  S. Grimme,  
 S. Hammes-Schiffer,  T. Head-Gordon,  W. J. Hehre,  Chao-Ping Hsu,  
 T.-C. Jagau,  Yousung Jung,  A. Klamt,  Jing Kong,  D. S. Lambrecht,  
 WanZhen Liang,  N. J. Mayhall,  C. W. McCurdy,  J. B. Neaton,  
 C. Ochsenfeld,  J. A. Parkhill,  R. Peverati,  V. A. Rassolov,  Yihan Shao,  
 L. V. Slipchenko,  T. Stauch,  R. P. Steele,  J. E. Subotnik,  
 A. J. W. Thom,  A. Tkatchenko,  D. G. Truhlar,  T. Van Voorhis,  
 T. A. Wesolowski,  K. B. Whaley,  H. L. Woodcock III,  P. M. Zimmerman,  
 S. Faraji,  P. M. W. Gill,  M. Head-Gordon,  J. M. Herbert,  A. I. Krylov

 Additional authors for Version 5.4.1: 
 S. Kotaru,  Shaozhi Li,  Xiangyuan Li,  F. Matz,  A. Molle,  Haisheng Ren,  
 Yingli Su,  Hung-Yi Tsai,  C. Utku,  Fang Wang

 Contributors to earlier versions of Q-Chem not listed above: 
 R. D. Adamson,  B. Austin,  R. Baer,  J. Baker,  G. J. O. Beran,  
 K. Brandhorst,  S. T. Brown,  E. F. C. Byrd,  A. K. Chakraborty,  
 G. K. L. Chan,  Chun-Min Chang,  Yunqing Chen,  C.-L. Cheng,  
 Siu Hung Chien,  D. M. Chipman,  D. L. Crittenden,  H. Dachsel,  
 R. J. Doerksen,  A. D. Dutoi,  R. G. Edgar,  J. Fosso-Tande,  
 L. Fusti-Molnar,  D. Ghosh,  A. Ghysels,  A. Golubeva-Zadorozhnaya,  
 J. Gonthier,  M. S. Gordon,  S. R. Gwaltney,  G. Hawkins,  J. E. Herr,  
 A. Heyden,  S. Hirata,  E. G. Hohenstein,  G. Kedziora,  F. J. Keil,  
 C. Kelley,  Jihan Kim,  R. A. King,  R. Z. Khaliullin,  P. P. Korambath,  
 W. Kurlancheek,  A. Laurent,  A. M. Lee,  M. S. Lee,  S. V. Levchenko,  
 Ching Yeh Lin,  D. Liotard,  E. Livshits,  R. C. Lochan,  I. Lotan,  
 L. A. Martinez-Martinez,  P. E. Maslen,  N. Nair,  D. P. O'Neill,  
 D. Neuhauser,  E. Neuscamman,  C. M. Oana,  R. Olivares-Amaya,  R. Olson,  
 T. M. Perrine,  B. Peters,  P. A. Pieniazek,  A. Prociuk,  Y. M. Rhee,  
 J. Ritchie,  M. A. Rohrdanz,  E. Rosta,  N. J. Russ,  H. F. Schaefer III,  
 M. W. Schmidt,  N. E. Schultz,  S. Sharma,  N. Shenvi,  C. D. Sherrill,  
 A. C. Simmonett,  A. Sodt,  T. Stein,  D. Stuck,  K. S. Thanthiriwatte,  
 V. Vanovschi,  L. Vogt,  Tao Wang,  A. Warshel,  M. A. Watson,  
 C. F. Williams,  Q. Wu,  X. Xu,  Jun Yang,  W. Zhang,  Yan Zhao

 Please cite Q-Chem as follows:
 Y. Shao et al., Mol. Phys. 113, 184-215 (2015)
 DOI: 10.1080/00268976.2014.952696

 Q-Chem 5.4.1 for Intel X86 EM64T Linux

 Parts of Q-Chem use Armadillo 9.800.1 (Horizon Scraper).
 http://arma.sourceforge.net/

 Q-Chem begins on Tue Aug 16 17:04:50 2022  

 Host: 
0

     Scratch files written to /scr/qchem-uccaour/GA_vibs_m062x_augccpvtz_1/scratch/savename//
 Aug1521 |scratch|qcdevops|jenkins|workspace|build_RNUM 7245   
 Processing $rem in /opt/qchem/5.4.1/shmem/config/preferences:
 Processing $rem in /home/uccaour/.qchemrc:
The previous job contains 0 fragments, simply inherited here

 Checking the input file for inconsistencies... 	...done.

--------------------------------------------------------------
User input:
--------------------------------------------------------------

$molecule
read
$end

$rem
JOBTYPE    freq
METHOD     M062X
BASIS      aug-CC-pVTZ
$end
--------------------------------------------------------------
 ----------------------------------------------------------------
             Standard Nuclear Orientation (Angstroms)
    I     Atom           X                Y                Z
 ----------------------------------------------------------------
    1      O       1.7981528361     0.0547616479     0.0000000000
    2      O      -0.5975289298     1.2649958122     0.0000000000
    3      O      -1.5446597492    -0.7589035704    -0.0000000000
    4      C       0.8355285490    -0.6571614420    -0.0000000000
    5      C      -0.5766663790    -0.0625562941    -0.0000000000
    6      H       0.8807101091    -1.7554324339    -0.0000000000
    7      H       0.3184036146     1.5869077324     0.0000000000
 ----------------------------------------------------------------
 Molecular Point Group                 Cs    NOp =  2
 Largest Abelian Subgroup              Cs    NOp =  2
 Nuclear Repulsion Energy =         163.89472851 hartrees
 There are       19 alpha and       19 beta electrons
 Requested basis set is aug-cc-pVTZ
 There are 88 shells and 276 basis functions

 Total QAlloc Memory Limit   2000 MB
 Mega-Array Size       188 MB
 MEM_STATIC part       192 MB

                       Distance Matrix (Angstroms)
             O (  1)   O (  2)   O (  3)   C (  4)   C (  5)   H (  6)
   O (  2)  2.684019
   O (  3)  3.440414  2.234553
   C (  4)  1.197280  2.397570  2.382362
   C (  5)  2.377715  1.327716  1.192439  1.532269
   H (  6)  2.029410  3.362763  2.622115  1.099200  2.233781
   H (  7)  2.130054  0.970855  2.995636  2.302882  1.876668  3.389311

 
 A cutoff of  1.0D-11 yielded   3875 shell pairs
 There are     38239 function pairs (     53132 Cartesian)
 Smallest overlap matrix eigenvalue = 2.46E-05
 Guess from superposition of atomic densities
 Warning:  Energy on first SCF cycle will be non-variational
 SAD guess density has 38.000000 electrons

 -----------------------------------------------------------------------
  General SCF calculation program by
  Eric Jon Sundstrom, Paul Horn, Yuezhi Mao, Dmitri Zuev, Alec White,
  David Stuck, Shaama M.S., Shane Yost, Joonho Lee, David Small,
  Daniel Levine, Susi Lehtola, Hugh Burton, Evgeny Epifanovsky,
  Bang C. Huynh
 -----------------------------------------------------------------------
 Exchange:     0.5400 Hartree-Fock + 1.0000 M06-2X
 Correlation:  1.0000 M06-2X
 Using SG-3 standard quadrature grid
 using 15 threads for integral computing
 -------------------------------------------------------
 OpenMP Integral computing Module                
 Release: version 1.0, May 2013, Q-Chem Inc. Pittsburgh 
 -------------------------------------------------------
 A restricted SCF calculation will be
 performed using DIIS
 SCF converges when DIIS error is below 1.0e-08
 ---------------------------------------
  Cycle       Energy         DIIS error
 ---------------------------------------
    1    -304.0989717366      2.73e-02  
    2    -302.9488596875      4.29e-03  
    3    -302.7932147856      6.74e-03  
    4    -303.0851068388      4.79e-04  
    5    -303.0860208735      3.59e-04  
    6    -303.0868190341      5.53e-05  
    7    -303.0868460174      2.70e-05  
    8    -303.0868508773      1.45e-05  
    9    -303.0868524484      3.06e-06  
   10    -303.0868525398      5.39e-07  
   11    -303.0868525436      1.57e-07  
   12    -303.0868525440      3.15e-08  
   13    -303.0868525438      6.28e-09  Convergence criterion met
 ---------------------------------------
 SCF time:   CPU 1599.35s  wall 109.00s 
 SCF   energy in the final basis set =     -303.0868525438
 Total energy in the final basis set =     -303.0868525438
 
 --------------------------------------------------------------
             Orbital Energies (a.u.) and Symmetries
 --------------------------------------------------------------
 
 Alpha MOs, Restricted
 -- Occupied --                  
-19.701 -19.693 -19.653 -10.706 -10.682  -1.275  -1.235  -1.185
  1 A'    2 A'    3 A'    4 A'    5 A'    6 A'    7 A'    8 A'                 
 -0.813  -0.728  -0.666  -0.600  -0.580  -0.564  -0.511  -0.509
  9 A'   10 A'   11 A'   12 A'    1 A"   13 A'   14 A'    2 A"                 
 -0.443  -0.429  -0.367
 15 A'    3 A"   16 A'                                                         
 -- Virtual --                   
 -0.071  -0.009   0.007   0.029   0.030   0.055   0.061   0.063
  4 A"   17 A'   18 A'   19 A'    5 A"   20 A'   21 A'    6 A"                 
  0.068   0.078   0.090   0.100   0.115   0.122   0.136   0.146
 22 A'    7 A"   23 A'   24 A'    8 A"   25 A'   26 A'   27 A'                 
  0.157   0.168   0.176   0.192   0.194   0.204   0.208   0.220
  9 A"   28 A'   29 A'   30 A'   10 A"   31 A'   32 A'   11 A"                 
  0.225   0.243   0.246   0.273   0.275   0.315   0.317   0.329
 33 A'   34 A'   12 A"   35 A'   36 A'   37 A'   38 A'   13 A"                 
  0.333   0.334   0.341   0.366   0.372   0.381   0.405   0.416
 39 A'   14 A"   40 A'   15 A"   41 A'   42 A'   43 A'   16 A"                 
  0.429   0.449   0.470   0.480   0.498   0.517   0.537   0.547
 44 A'   45 A'   46 A'   17 A"   47 A'   18 A"   48 A'   49 A'                 
  0.557   0.588   0.600   0.618   0.629   0.641   0.655   0.671
 50 A'   51 A'   19 A"   52 A'   20 A"   53 A'   54 A'   55 A'                 
  0.705   0.707   0.730   0.733   0.734   0.743   0.779   0.789
 56 A'   21 A"   57 A'   22 A"   58 A'   23 A"   24 A"   59 A'                 
  0.805   0.820   0.831   0.836   0.842   0.864   0.876   0.884
 60 A'   25 A"   26 A"   61 A'   62 A'   27 A"   63 A'   64 A'                 
  0.900   0.905   0.910   0.921   0.970   0.974   0.980   1.003
 65 A'   28 A"   66 A'   67 A'   68 A'   69 A'   29 A"   30 A"                 
  1.014   1.048   1.069   1.102   1.104   1.126   1.150   1.168
 70 A'   31 A"   71 A'   32 A"   72 A'   73 A'   33 A"   74 A'                 
  1.180   1.191   1.236   1.255   1.261   1.274   1.295   1.297
 75 A'   34 A"   76 A'   77 A'   35 A"   78 A'   79 A'   36 A"                 
  1.313   1.373   1.375   1.430   1.430   1.457   1.472   1.507
 80 A'   81 A'   37 A"   82 A'   38 A"   39 A"   83 A'   84 A'                 
  1.519   1.565   1.603   1.613   1.639   1.647   1.668   1.680
 40 A"   85 A'   86 A'   87 A'   88 A'   89 A'   41 A"   90 A'                 
  1.692   1.782   1.823   1.834   1.869   1.916   1.996   2.025
 42 A"   91 A'   92 A'   43 A"   93 A'   94 A'   95 A'   44 A"                 
  2.042   2.054   2.109   2.131   2.133   2.139   2.181   2.197
 45 A"   96 A'   46 A"   97 A'   47 A"   98 A'   99 A'   48 A"                 
  2.205   2.221   2.245   2.260   2.280   2.284   2.334   2.342
100 A'  101 A'   49 A"  102 A'   50 A"  103 A'  104 A'   51 A"                 
  2.363   2.391   2.419   2.452   2.496   2.514   2.530   2.533
 52 A"  105 A'  106 A'  107 A'  108 A'  109 A'   53 A"  110 A'                 
  2.569   2.570   2.606   2.642   2.663   2.679   2.680   2.738
111 A'   54 A"   55 A"  112 A'   56 A"  113 A'   57 A"   58 A"                 
  2.740   2.758   2.814   2.875   2.918   2.948   2.964   3.003
114 A'  115 A'   59 A"  116 A'   60 A"  117 A'  118 A'   61 A"                 
  3.018   3.097   3.122   3.158   3.168   3.185   3.235   3.312
119 A'  120 A'   62 A"  121 A'   63 A"  122 A'  123 A'  124 A'                 
  3.378   3.392   3.436   3.468   3.528   3.539   3.554   3.615
125 A'   64 A"  126 A'  127 A'  128 A'   65 A"   66 A"   67 A"                 
  3.647   3.693   3.774   3.784   3.836   3.900   3.901   3.925
129 A'  130 A'  131 A'   68 A"  132 A'   69 A"  133 A'   70 A"                 
  3.979   3.988   4.020   4.091   4.098   4.174   4.200   4.312
134 A'   71 A"  135 A'   72 A"  136 A'   73 A"  137 A'  138 A'                 
  4.329   4.356   4.412   4.450   4.452   4.575   4.623   4.671
 74 A"  139 A'  140 A'  141 A'   75 A"  142 A'  143 A'  144 A'                 
  4.705   4.755   4.756   4.851   4.872   4.925   5.037   5.040
 76 A"   77 A"  145 A'  146 A'   78 A"  147 A'  148 A'   79 A"                 
  5.098   5.219   5.361   5.622   5.789   5.850   5.959   6.071
149 A'  150 A'  151 A'  152 A'  153 A'  154 A'  155 A'  156 A'                 
  6.149   6.193   6.193   6.300   6.317   6.381   6.389   6.419
 80 A"   81 A"  157 A'  158 A'   82 A"   83 A"  159 A'   84 A"                 
  6.472   6.513   6.535   6.592   6.635   6.653   6.672   6.717
160 A'   85 A"  161 A'   86 A"   87 A"  162 A'   88 A"   89 A"                 
  6.718   6.799   6.811   6.848   6.864   6.929   6.968   6.992
163 A'  164 A'   90 A"   91 A"  165 A'  166 A'   92 A"  167 A'                 
  7.023   7.050   7.060   7.078   7.197   7.250   7.323   7.351
168 A'  169 A'   93 A"   94 A"  170 A'  171 A'  172 A'  173 A'                 
  7.388   7.451   7.784   7.931  13.956  14.706  15.469  16.443
174 A'  175 A'  176 A'  177 A'  178 A'  179 A'  180 A'  181 A'                 
 17.675
182 A'                                                                         
 
 Beta MOs, Restricted
 -- Occupied --                  
-19.701 -19.693 -19.653 -10.706 -10.682  -1.275  -1.235  -1.185
  1 A'    2 A'    3 A'    4 A'    5 A'    6 A'    7 A'    8 A'                 
 -0.813  -0.728  -0.666  -0.600  -0.580  -0.564  -0.511  -0.509
  9 A'   10 A'   11 A'   12 A'    1 A"   13 A'   14 A'    2 A"                 
 -0.443  -0.429  -0.367
 15 A'    3 A"   16 A'                                                         
 -- Virtual --                   
 -0.071  -0.009   0.007   0.029   0.030   0.055   0.061   0.063
  4 A"   17 A'   18 A'   19 A'    5 A"   20 A'   21 A'    6 A"                 
  0.068   0.078   0.090   0.100   0.115   0.122   0.136   0.146
 22 A'    7 A"   23 A'   24 A'    8 A"   25 A'   26 A'   27 A'                 
  0.157   0.168   0.176   0.192   0.194   0.204   0.208   0.220
  9 A"   28 A'   29 A'   30 A'   10 A"   31 A'   32 A'   11 A"                 
  0.225   0.243   0.246   0.273   0.275   0.315   0.317   0.329
 33 A'   34 A'   12 A"   35 A'   36 A'   37 A'   38 A'   13 A"                 
  0.333   0.334   0.341   0.366   0.372   0.381   0.405   0.416
 39 A'   14 A"   40 A'   15 A"   41 A'   42 A'   43 A'   16 A"                 
  0.429   0.449   0.470   0.480   0.498   0.517   0.537   0.547
 44 A'   45 A'   46 A'   17 A"   47 A'   18 A"   48 A'   49 A'                 
  0.557   0.588   0.600   0.618   0.629   0.641   0.655   0.671
 50 A'   51 A'   19 A"   52 A'   20 A"   53 A'   54 A'   55 A'                 
  0.705   0.707   0.730   0.733   0.734   0.743   0.779   0.789
 56 A'   21 A"   57 A'   22 A"   58 A'   23 A"   24 A"   59 A'                 
  0.805   0.820   0.831   0.836   0.842   0.864   0.876   0.884
 60 A'   25 A"   26 A"   61 A'   62 A'   27 A"   63 A'   64 A'                 
  0.900   0.905   0.910   0.921   0.970   0.974   0.980   1.003
 65 A'   28 A"   66 A'   67 A'   68 A'   69 A'   29 A"   30 A"                 
  1.014   1.048   1.069   1.102   1.104   1.126   1.150   1.168
 70 A'   31 A"   71 A'   32 A"   72 A'   73 A'   33 A"   74 A'                 
  1.180   1.191   1.236   1.255   1.261   1.274   1.295   1.297
 75 A'   34 A"   76 A'   77 A'   35 A"   78 A'   79 A'   36 A"                 
  1.313   1.373   1.375   1.430   1.430   1.457   1.472   1.507
 80 A'   81 A'   37 A"   82 A'   38 A"   39 A"   83 A'   84 A'                 
  1.519   1.565   1.603   1.613   1.639   1.647   1.668   1.680
 40 A"   85 A'   86 A'   87 A'   88 A'   89 A'   41 A"   90 A'                 
  1.692   1.782   1.823   1.834   1.869   1.916   1.996   2.025
 42 A"   91 A'   92 A'   43 A"   93 A'   94 A'   95 A'   44 A"                 
  2.042   2.054   2.109   2.131   2.133   2.139   2.181   2.197
 45 A"   96 A'   46 A"   97 A'   47 A"   98 A'   99 A'   48 A"                 
  2.205   2.221   2.245   2.260   2.280   2.284   2.334   2.342
100 A'  101 A'   49 A"  102 A'   50 A"  103 A'  104 A'   51 A"                 
  2.363   2.391   2.419   2.452   2.496   2.514   2.530   2.533
 52 A"  105 A'  106 A'  107 A'  108 A'  109 A'   53 A"  110 A'                 
  2.569   2.570   2.606   2.642   2.663   2.679   2.680   2.738
111 A'   54 A"   55 A"  112 A'   56 A"  113 A'   57 A"   58 A"                 
  2.740   2.758   2.814   2.875   2.918   2.948   2.964   3.003
114 A'  115 A'   59 A"  116 A'   60 A"  117 A'  118 A'   61 A"                 
  3.018   3.097   3.122   3.158   3.168   3.185   3.235   3.312
119 A'  120 A'   62 A"  121 A'   63 A"  122 A'  123 A'  124 A'                 
  3.378   3.392   3.436   3.468   3.528   3.539   3.554   3.615
125 A'   64 A"  126 A'  127 A'  128 A'   65 A"   66 A"   67 A"                 
  3.647   3.693   3.774   3.784   3.836   3.900   3.901   3.925
129 A'  130 A'  131 A'   68 A"  132 A'   69 A"  133 A'   70 A"                 
  3.979   3.988   4.020   4.091   4.098   4.174   4.200   4.312
134 A'   71 A"  135 A'   72 A"  136 A'   73 A"  137 A'  138 A'                 
  4.329   4.356   4.412   4.450   4.452   4.575   4.623   4.671
 74 A"  139 A'  140 A'  141 A'   75 A"  142 A'  143 A'  144 A'                 
  4.705   4.755   4.756   4.851   4.872   4.925   5.037   5.040
 76 A"   77 A"  145 A'  146 A'   78 A"  147 A'  148 A'   79 A"                 
  5.098   5.219   5.361   5.622   5.789   5.850   5.959   6.071
149 A'  150 A'  151 A'  152 A'  153 A'  154 A'  155 A'  156 A'                 
  6.149   6.193   6.193   6.300   6.317   6.381   6.389   6.419
 80 A"   81 A"  157 A'  158 A'   82 A"   83 A"  159 A'   84 A"                 
  6.472   6.513   6.535   6.592   6.635   6.653   6.672   6.717
160 A'   85 A"  161 A'   86 A"   87 A"  162 A'   88 A"   89 A"                 
  6.718   6.799   6.811   6.848   6.864   6.929   6.968   6.992
163 A'  164 A'   90 A"   91 A"  165 A'  166 A'   92 A"  167 A'                 
  7.023   7.050   7.060   7.078   7.197   7.250   7.323   7.351
168 A'  169 A'   93 A"   94 A"  170 A'  171 A'  172 A'  173 A'                 
  7.388   7.451   7.784   7.931  13.956  14.706  15.469  16.443
174 A'  175 A'  176 A'  177 A'  178 A'  179 A'  180 A'  181 A'                 
 17.675
182 A'                                                                         
 --------------------------------------------------------------
 
          Ground-State Mulliken Net Atomic Charges

     Atom                 Charge (a.u.)
  ----------------------------------------
      1 O                    -0.643085
      2 O                    -0.389459
      3 O                    -0.605312
      4 C                     0.080029
      5 C                     0.722705
      6 H                     0.528314
      7 H                     0.306808
  ----------------------------------------
  Sum of atomic charges =     0.000000

 -----------------------------------------------------------------
                    Cartesian Multipole Moments
 -----------------------------------------------------------------
    Charge (ESU x 10^10)
                 0.0000
    Dipole Moment (Debye)
         X       1.9567      Y      -0.1024      Z       0.0000
       Tot       1.9594
    Quadrupole Moments (Debye-Ang)
        XX     -36.2012     XY      -1.4685     YY     -25.7416
        XZ      -0.0000     YZ       0.0000     ZZ     -26.7416
    Octopole Moments (Debye-Ang^2)
       XXX      -2.5466    XXY       2.1642    XYY       8.2224
       YYY       4.0140    XXZ       0.0000    XYZ       0.0000
       YYZ       0.0000    XZZ       0.1634    YZZ       0.4318
       ZZZ       0.0000
    Hexadecapole Moments (Debye-Ang^3)
      XXXX    -289.8941   XXXY      -3.9505   XXYY     -66.8203
      XYYY       1.9636   YYYY    -118.1944   XXXZ      -0.0000
      XXYZ      -0.0000   XYYZ       0.0000   YYYZ      -0.0000
      XXZZ     -45.7362   XYZZ       0.5521   YYZZ     -26.2023
      XZZZ      -0.0000   YZZZ       0.0000   ZZZZ     -22.8427
 -----------------------------------------------------------------
 Calculating MO derivatives via CPSCF
    1     0    24    0.0543101  
    2     0    24    0.0073937  
    3     0    24    0.0014462  
    4     0    24    0.0003037  
    5     0    24    0.0000375  
    6    12    12    0.0000033  
    7    24     0    0.0000003  Converged
 Time for AOints: 423.7 s (CPU) 28.7 s (wall)
 ------------------------------------------------------------------------------
                     AOints        : Timing summary (seconds)
 ------------------------------------------------------------------------------
     job step          cpu (% of tot)      sys (% of tot)     wall (% of tot)
 ------------------------------------------------------------------------------
  AOints            0.4237E+03 ( 4.3)   0.8100E-04 ( 4.5)   0.2871E+02 ( 4.4)
 ------------------------------------------------------------------------------
   Grand Totals     0.9822E+04          0.1791E-02          0.6589E+03
 ------------------------------------------------------------------------------
 Polarizability Matrix (a.u.)
            1           2           3
    1 -41.2758453  -4.4612675   0.0000000
    2  -4.4612675 -38.5007292  -0.0000000
    3   0.0000000  -0.0000000 -22.9495377
 Calculating analytic Hessian of the SCF energy
 
 Direct stationary perturbation theory relativistic correction:
 
 rels  =       0.111064105322
 relv  =      -0.459749545980
 rel2e =       0.159733815268
 E_rel =      -0.188951625390
 
 **********************************************************************
 **                                                                  **
 **                       VIBRATIONAL ANALYSIS                       **
 **                       --------------------                       **
 **                                                                  **
 **        VIBRATIONAL FREQUENCIES (CM**-1) AND NORMAL MODES         **
 **     FORCE CONSTANTS (mDYN/ANGSTROM) AND REDUCED MASSES (AMU)     **
 **                  INFRARED INTENSITIES (KM/MOL)                   **
 **                                                                  **
 **********************************************************************
 

 Mode:                 1                      2                      3
 Frequency:       172.04                 292.07                 512.87
 Force Cnst:      0.0662                 0.3215                 1.4314
 Red. Mass:       3.7939                 6.3974                 9.2360
 IR Active:          YES                    YES                    YES
 IR Intens:       30.238                 33.534                  6.477
 Raman Active:       YES                    YES                    YES
               X      Y      Z        X      Y      Z        X      Y      Z
 O          0.000 -0.000 -0.253   -0.239  0.302 -0.000   -0.355 -0.035  0.000
 O         -0.000  0.000  0.091    0.360 -0.166  0.000    0.190  0.186  0.000
 O          0.000 -0.000 -0.193   -0.173  0.057 -0.000    0.396 -0.276  0.000
 C         -0.000  0.000  0.313    0.014 -0.059  0.000   -0.358  0.008 -0.000
 C          0.000  0.000  0.080   -0.019 -0.155  0.000    0.073  0.164 -0.000
 H         -0.000  0.000  0.883    0.402 -0.036  0.000   -0.566  0.004  0.000
 H         -0.000  0.000  0.083    0.481 -0.488 -0.000    0.290 -0.060  0.000
 TransDip  -0.000  0.000  0.176    0.106 -0.152  0.000   -0.076  0.030 -0.000

 Mode:                 4                      5                      6
 Frequency:       585.09                 665.76                 695.24
 Force Cnst:      0.5776                 0.3025                 1.7005
 Red. Mass:       2.8639                 1.1583                 5.9713
 IR Active:          YES                    YES                    YES
 IR Intens:       41.716                 72.757                 18.026
 Raman Active:       YES                    YES                    YES
               X      Y      Z        X      Y      Z        X      Y      Z
 O          0.000 -0.000 -0.031    0.000  0.000 -0.010   -0.239  0.047 -0.000
 O          0.000  0.000 -0.143   -0.000 -0.000 -0.036   -0.177 -0.066 -0.000
 O          0.000 -0.000 -0.094   -0.000  0.000  0.046    0.150  0.265 -0.000
 C         -0.000  0.000  0.016    0.000  0.000 -0.005    0.056 -0.302  0.000
 C         -0.000  0.000  0.357    0.000 -0.000 -0.094    0.314 -0.047  0.000
 H          0.000  0.000 -0.737   -0.000  0.000  0.204    0.237 -0.296 -0.000
 H          0.000 -0.000  0.547   -0.000 -0.000  0.973   -0.416  0.548  0.000
 TransDip  -0.000 -0.000  0.207    0.000 -0.000  0.273    0.127 -0.048  0.000

 Mode:                 7                      8                      9
 Frequency:       904.57                1033.55                1237.87
 Force Cnst:      2.8859                 1.2220                 1.5666
 Red. Mass:       5.9862                 1.9416                 1.7352
 IR Active:          YES                    YES                    YES
 IR Intens:       49.875                  4.078                 16.991
 Raman Active:       YES                    YES                    YES
               X      Y      Z        X      Y      Z        X      Y      Z
 O         -0.044  0.045 -0.000   -0.000  0.000  0.052   -0.001 -0.011  0.000
 O         -0.009  0.377  0.000   -0.000  0.000 -0.023    0.076  0.073  0.000
 O         -0.070 -0.161  0.000    0.000  0.000 -0.035   -0.083 -0.055  0.000
 C          0.256 -0.346  0.000    0.000 -0.000 -0.231   -0.043  0.064 -0.000
 C         -0.161  0.027 -0.000    0.000 -0.000  0.159    0.079 -0.159 -0.000
 H          0.690 -0.343  0.000   -0.000 -0.000  0.957   -0.023  0.069  0.000
 H          0.129  0.017  0.000    0.000 -0.000 -0.011   -0.268  0.930  0.000
 TransDip   0.061 -0.218 -0.000    0.000 -0.000  0.065   -0.048  0.123  0.000

 Mode:                10                     11                     12
 Frequency:      1352.75                1402.56                1861.10
 Force Cnst:      1.3084                 3.3788                22.0172
 Red. Mass:       1.2136                 2.9152                10.7888
 IR Active:          YES                    YES                    YES
 IR Intens:       21.469                333.879                156.596
 Raman Active:       YES                    YES                    YES
               X      Y      Z        X      Y      Z        X      Y      Z
 O         -0.018 -0.068  0.000    0.001  0.026  0.000   -0.418 -0.303 -0.000
 O          0.003 -0.020 -0.000    0.086 -0.174 -0.000    0.005 -0.018  0.000
 O          0.027  0.010 -0.000    0.011 -0.044  0.000   -0.050 -0.026  0.000
 C         -0.073  0.061 -0.000    0.068 -0.088 -0.000    0.606  0.390  0.000
 C         -0.024  0.027  0.000   -0.165  0.281  0.000    0.030  0.047 -0.000
 H          0.981  0.131  0.000   -0.080 -0.116  0.000   -0.231  0.383 -0.000
 H         -0.023  0.053  0.000   -0.311  0.851 -0.000    0.020 -0.090 -0.000
 TransDip  -0.047  0.141  0.000   -0.067  0.581 -0.000    0.338  0.216 -0.000

 Mode:                13                     14                     15
 Frequency:      1908.29                3055.83                3737.93
 Force Cnst:     22.5657                 6.0160                 8.7668
 Red. Mass:      10.5174                 1.0934                 1.0650
 IR Active:          YES                    YES                    YES
 IR Intens:      239.980                 26.651                128.397
 Raman Active:       YES                    YES                    YES
               X      Y      Z        X      Y      Z        X      Y      Z
 O          0.016  0.012  0.000    0.002  0.002  0.000   -0.001 -0.001 -0.000
 O         -0.054 -0.029 -0.000    0.000  0.000 -0.000   -0.057 -0.022 -0.000
 O         -0.386 -0.261 -0.000    0.002  0.001 -0.000    0.001  0.002  0.000
 C         -0.073 -0.039 -0.000    0.005 -0.088 -0.000    0.001  0.001 -0.000
 C          0.605  0.437  0.000   -0.005 -0.001  0.000   -0.003 -0.004 -0.000
 H          0.233  0.043  0.000   -0.063  0.994  0.000   -0.003 -0.002  0.000
 H          0.145 -0.371 -0.000   -0.000  0.007 -0.000    0.928  0.368  0.000
 TransDip   0.370  0.330  0.000    0.012 -0.165  0.000    0.325  0.162  0.000

 STANDARD THERMODYNAMIC QUANTITIES AT   298.15 K  AND     1.00 ATM

   This Molecule has  0 Imaginary Frequencies
   Zero point vibrational energy:       27.759 kcal/mol

   Atom    1 Element O  Has Mass   15.99491
   Atom    2 Element O  Has Mass   15.99491
   Atom    3 Element O  Has Mass   15.99491
   Atom    4 Element C  Has Mass   12.00000
   Atom    5 Element C  Has Mass   12.00000
   Atom    6 Element H  Has Mass    1.00783
   Atom    7 Element H  Has Mass    1.00783
   Molecular Mass:    74.000390 amu
   Principal axes and moments of inertia in amu*Bohr^2:
                             1           2           3
    Eigenvalues --      163.23685   388.67833   551.91518
          X               0.99987    -0.01636     0.00000
          Y               0.01636     0.99987     0.00000
          Z               0.00000     0.00000     1.00000
   Rotational Symmetry Number is   1
   The Molecule is an Asymmetric Top
   Translational Enthalpy:        0.889 kcal/mol
   Rotational Enthalpy:           0.889 kcal/mol
   Vibrational Enthalpy:         28.875 kcal/mol
   gas constant (RT):             0.592 kcal/mol
   Translational Entropy:        38.820  cal/mol.K
   Rotational Entropy:           25.063  cal/mol.K
   Vibrational Entropy:           5.937  cal/mol.K

   Total Enthalpy:               31.245 kcal/mol
   Total Entropy:                69.820  cal/mol.K
 Total job time:  1102.86s(wall), 16392.48s(cpu) 
 Tue Aug 16 17:23:13 2022

        *************************************************************
        *                                                           *
        *  Thank you very much for using Q-Chem.  Have a nice day.  *
        *                                                           *
        *************************************************************


