
Running Job 1 of 1 GA_vee.inp
qchem GA_vee.inp_20168.0 /scr/qchem-uccaour/GA_vee_1/scratch/savename/ 0
/opt/qchem/5.4.1/shmem/exe/qcprog.exe_s GA_vee.inp_20168.0 /scr/qchem-uccaour/GA_vee_1/scratch/savename/
                  Welcome to Q-Chem
     A Quantum Leap Into The Future Of Chemistry


 Q-Chem 5.4, Q-Chem, Inc., Pleasanton, CA (2021)

 License issued to: SRG Graham Worth, University College London

 E. Epifanovsky,  A. T. B. Gilbert,  Xintian Feng,  Joonho Lee,  Yuezhi Mao,  
 N. Mardirossian,  P. Pokhilko,  A. White,  M. Wormit,  M. P. Coons,  
 A. L. Dempwolff,  Zhengting Gan,  D. Hait,  P. R. Horn,  L. D. Jacobson,  
 I. Kaliman,  J. Kussmann,  A. W. Lange,  Ka Un Lao,  D. S. Levine,  Jie Liu,  
 S. C. McKenzie,  A. F. Morrison,  K. Nanda,  F. Plasser,  D. R. Rehn,  
 M. L. Vidal,  Zhi-Qiang You,  Ying Zhu,  B. Alam,  B. Albrecht,  
 A. Aldossary,  E. Alguire,  J. H. Andersen,  D. Barton,  K. Begam,  A. Behn,  
 Y. A. Bernard,  E. J. Berquist,  H. Burton,  A. Carreras,  K. Carter-Fenk,  
 R. Chakraborty,  A. D. Chien,  K. D. Closser,  V. Cofer-Shabica,  
 S. Dasgupta,  Jia Deng,  M. de Wergifosse,  M. Diedenhofen,  Hainam Do,  
 S. Ehlert,  Po-Tung Fang,  S. Fatehi,  Qingguo Feng,  T. Friedhoff,  
 J. Gayvert,  Qinghui Ge,  G. Gidofalvi,  M. Goldey,  J. Gomes,  
 C. Gonzalez-Espinoza,  S. Gulania,  A. Gunina,  M. W. D. Hanson-Heine,  
 P. H. P. Harbach,  A. W. Hauser,  M. F. Herbst,  M. Hernandez Vera,  
 M. Hodecker,  Z. C. Holden,  S. Houck,  Xunkun Huang,  Kerwin Hui,  
 B. C. Huynh,  M. Ivanov,  Hyunjun Ji,  Hanjie Jiang,  B. Kaduk,  S. Kaehler,  
 K. Khistyaev,  Jaehoon Kim,  P. Klunzinger,  Z. Koczor-Benda,  
 Joong Hoon Koh,  D. Kosenkov,  L. Koulias,  T. Kowalczyk,  C. M. Krauter,  
 K. Kue,  A. Kunitsa,  T. Kus,  A. Landau,  K. V. Lawler,  D. Lefrancois,  
 S. Lehtola,  Rain Li,  Yi-Pei Li,  Jiashu Liang,  M. Liebenthal,  
 Hung-Hsuan Lin,  You-Sheng Lin,  Fenglai Liu,  Kuan-Yu Liu,  
 M. Loipersberger,  A. Luenser,  A. Manjanath,  P. Manohar,  E. Mansoor,  
 S. F. Manzer,  Shan-Ping Mao,  A. V. Marenich,  T. Markovich,  S. Mason,  
 S. A. Maurer,  P. F. McLaughlin,  M. F. S. J. Menger,  J.-M. Mewes,  
 S. A. Mewes,  P. Morgante,  J. W. Mullinax,  K. J. Oosterbaan,  G. Paran,  
 Alexander C. Paul,  Suranjan K. Paul,  F. Pavosevic,  Zheng Pei,  S. Prager,  
 E. I. Proynov,  E. Ramos,  B. Rana,  A. E. Rask,  A. Rettig,  R. M. Richard,  
 F. Rob,  E. Rossomme,  T. Scheele,  M. Scheurer,  M. Schneider,  
 N. Sergueev,  S. M. Sharada,  W. Skomorowski,  D. W. Small,  C. J. Stein,  
 Yu-Chuan Su,  E. J. Sundstrom,  Zhen Tao,  J. Thirman,  T. Tsuchimochi,  
 N. M. Tubman,  S. P. Veccham,  O. Vydrov,  J. Wenzel,  J. Witte,  A. Yamada,  
 Kun Yao,  S. Yeganeh,  S. R. Yost,  A. Zech,  Igor Ying Zhang,  Xing Zhang,  
 Yu Zhang,  D. Zuev,  A. Aspuru-Guzik,  A. T. Bell,  N. A. Besley,  
 K. B. Bravaya,  B. R. Brooks,  D. Casanova,  Jeng-Da Chai,  S. Coriani,  
 C. J. Cramer,  A. E. DePrince, III,  R. A. DiStasio Jr.,  A. Dreuw,  
 B. D. Dunietz,  T. R. Furlani,  W. A. Goddard III,  S. Grimme,  
 S. Hammes-Schiffer,  T. Head-Gordon,  W. J. Hehre,  Chao-Ping Hsu,  
 T.-C. Jagau,  Yousung Jung,  A. Klamt,  Jing Kong,  D. S. Lambrecht,  
 WanZhen Liang,  N. J. Mayhall,  C. W. McCurdy,  J. B. Neaton,  
 C. Ochsenfeld,  J. A. Parkhill,  R. Peverati,  V. A. Rassolov,  Yihan Shao,  
 L. V. Slipchenko,  T. Stauch,  R. P. Steele,  J. E. Subotnik,  
 A. J. W. Thom,  A. Tkatchenko,  D. G. Truhlar,  T. Van Voorhis,  
 T. A. Wesolowski,  K. B. Whaley,  H. L. Woodcock III,  P. M. Zimmerman,  
 S. Faraji,  P. M. W. Gill,  M. Head-Gordon,  J. M. Herbert,  A. I. Krylov

 Additional authors for Version 5.4.1: 
 S. Kotaru,  Shaozhi Li,  Xiangyuan Li,  F. Matz,  A. Molle,  Haisheng Ren,  
 Yingli Su,  Hung-Yi Tsai,  C. Utku,  Fang Wang

 Contributors to earlier versions of Q-Chem not listed above: 
 R. D. Adamson,  B. Austin,  R. Baer,  J. Baker,  G. J. O. Beran,  
 K. Brandhorst,  S. T. Brown,  E. F. C. Byrd,  A. K. Chakraborty,  
 G. K. L. Chan,  Chun-Min Chang,  Yunqing Chen,  C.-L. Cheng,  
 Siu Hung Chien,  D. M. Chipman,  D. L. Crittenden,  H. Dachsel,  
 R. J. Doerksen,  A. D. Dutoi,  R. G. Edgar,  J. Fosso-Tande,  
 L. Fusti-Molnar,  D. Ghosh,  A. Ghysels,  A. Golubeva-Zadorozhnaya,  
 J. Gonthier,  M. S. Gordon,  S. R. Gwaltney,  G. Hawkins,  J. E. Herr,  
 A. Heyden,  S. Hirata,  E. G. Hohenstein,  G. Kedziora,  F. J. Keil,  
 C. Kelley,  Jihan Kim,  R. A. King,  R. Z. Khaliullin,  P. P. Korambath,  
 W. Kurlancheek,  A. Laurent,  A. M. Lee,  M. S. Lee,  S. V. Levchenko,  
 Ching Yeh Lin,  D. Liotard,  E. Livshits,  R. C. Lochan,  I. Lotan,  
 L. A. Martinez-Martinez,  P. E. Maslen,  N. Nair,  D. P. O'Neill,  
 D. Neuhauser,  E. Neuscamman,  C. M. Oana,  R. Olivares-Amaya,  R. Olson,  
 T. M. Perrine,  B. Peters,  P. A. Pieniazek,  A. Prociuk,  Y. M. Rhee,  
 J. Ritchie,  M. A. Rohrdanz,  E. Rosta,  N. J. Russ,  H. F. Schaefer III,  
 M. W. Schmidt,  N. E. Schultz,  S. Sharma,  N. Shenvi,  C. D. Sherrill,  
 A. C. Simmonett,  A. Sodt,  T. Stein,  D. Stuck,  K. S. Thanthiriwatte,  
 V. Vanovschi,  L. Vogt,  Tao Wang,  A. Warshel,  M. A. Watson,  
 C. F. Williams,  Q. Wu,  X. Xu,  Jun Yang,  W. Zhang,  Yan Zhao

 Please cite Q-Chem as follows:
 Y. Shao et al., Mol. Phys. 113, 184-215 (2015)
 DOI: 10.1080/00268976.2014.952696

 Q-Chem 5.4.1 for Intel X86 EM64T Linux

 Parts of Q-Chem use Armadillo 9.800.1 (Horizon Scraper).
 http://arma.sourceforge.net/

 Q-Chem begins on Mon Aug 15 15:22:00 2022  

 Host: 
0

     Scratch files written to /scr/qchem-uccaour/GA_vee_1/scratch/savename//
 Aug1521 |scratch|qcdevops|jenkins|workspace|build_RNUM 7245   
 Processing $rem in /opt/qchem/5.4.1/shmem/config/preferences:
 Processing $rem in /home/uccaour/.qchemrc:
The previous job contains 0 fragments, simply inherited here
 Core orbitals will be frozen

 Checking the input file for inconsistencies... 	...done.

--------------------------------------------------------------
User input:
--------------------------------------------------------------
$comment
EOM-CCSD calculation of first 10 excited states of GA.
$end

$molecule
READ /home/uccaour/GlyoxylicAcid/QChem/opt_geom_m062x_augccpvtz.txt
$end

$rem
METHOD = eom-ccsd
BASIS  =  aug-cc-pVTZ
EE_SINGLETS = [2, 2]
EE_TRIPLETS = [3, 3]
GUI  =  2
$end

--------------------------------------------------------------
 ----------------------------------------------------------------
             Standard Nuclear Orientation (Angstroms)
    I     Atom           X                Y                Z
 ----------------------------------------------------------------
    1      O       1.7968471897     0.0512663630    -0.0000000000
    2      O      -0.5911257759     1.2659401488    -0.0000000000
    3      O      -1.5473768787    -0.7547408350     0.0000000000
    4      C       0.8323863770    -0.6584514844     0.0000000000
    5      C      -0.5772514634    -0.0615825208     0.0000000000
    6      H       0.8742113603    -1.7566381241     0.0000000000
    7      H       0.3282228776     1.5771167406    -0.0000000000
 ----------------------------------------------------------------
 Molecular Point Group                 Cs    NOp =  2
 Largest Abelian Subgroup              Cs    NOp =  2
 Nuclear Repulsion Energy =         163.97900563 hartrees
 There are       19 alpha and       19 beta electrons
 Requested basis set is aug-cc-pVTZ
 There are 88 shells and 276 basis functions
 Total memory of 2000 MB is distributed as follows: 
   MEM_STATIC is set to 192 MB
   QALLOC/CCMAN JOB total memory use is  1808 MB
 Warning: actual memory use might exceed 2000 MB

 Total QAlloc Memory Limit   2000 MB
 Mega-Array Size       188 MB
 MEM_STATIC part       192 MB

                       Distance Matrix (Angstroms)
             O (  1)   O (  2)   O (  3)   C (  4)   C (  5)   H (  6)
   O (  2)  2.679150
   O (  3)  3.439983  2.235524
   C (  4)  1.197449  2.393673  2.381710
   C (  5)  2.376779  1.327595  1.192314  1.530794
   H (  6)  2.029723  3.359046  2.620666  1.098983  2.231582
   H (  7)  2.117800  0.970584  2.992563  2.291712  1.872223  3.378169

 
 A cutoff of  1.0D-14 yielded   3901 shell pairs
 There are     38487 function pairs (     53481 Cartesian)
 Smallest overlap matrix eigenvalue = 2.45E-05

 Scale SEOQF with 1.000000e-01/1.000000e-01/1.000000e-01

 Standard Electronic Orientation quadrupole field applied
 Nucleus-field energy     =     0.0000000038 hartrees
 Guess from superposition of atomic densities
 Warning:  Energy on first SCF cycle will be non-variational
 SAD guess density has 38.000000 electrons

 -----------------------------------------------------------------------
  General SCF calculation program by
  Eric Jon Sundstrom, Paul Horn, Yuezhi Mao, Dmitri Zuev, Alec White,
  David Stuck, Shaama M.S., Shane Yost, Joonho Lee, David Small,
  Daniel Levine, Susi Lehtola, Hugh Burton, Evgeny Epifanovsky,
  Bang C. Huynh
 -----------------------------------------------------------------------
 Hartree-Fock
 using 15 threads for integral computing
 -------------------------------------------------------
 OpenMP Integral computing Module                
 Release: version 1.0, May 2013, Q-Chem Inc. Pittsburgh 
 -------------------------------------------------------
 A restricted SCF calculation will be
 performed using DIIS
 SCF converges when DIIS error is below 1.0e-08
 ---------------------------------------
  Cycle       Energy         DIIS error
 ---------------------------------------
    1    -302.7322175421      2.87e-02  
    2    -301.4311988112      4.57e-03  
    3    -301.5119106363      3.76e-03  
    4    -301.6025300927      3.55e-04  
    5    -301.6044687949      1.68e-04  
    6    -301.6048350132      6.02e-05  
    7    -301.6049273205      3.15e-05  
    8    -301.6049514932      8.86e-06  
    9    -301.6049532559      1.86e-06  
   10    -301.6049533251      3.56e-07  
   11    -301.6049533279      1.25e-07  
   12    -301.6049533281      4.63e-08  
   13    -301.6049533281      1.76e-08  
   14    -301.6049533281      4.88e-09  Convergence criterion met
 ---------------------------------------
 SCF time:   CPU 661.34s  wall 44.00s 
 SCF   energy in the final basis set =     -301.6049533281
 Total energy in the final basis set =     -301.6049533281


 ------------------------------------------------------------------------------

   CCMAN2: suite of methods based on coupled cluster
           and equation of motion theories.

   Components:
   * libvmm-1.3-trunk
     by Evgeny Epifanovsky, Ilya Kaliman.
   * libtensor-2.5-trunk
     by Evgeny Epifanovsky, Michael Wormit, Dmitry Zuev, Sam Manzer, 
        Ilya Kaliman.
   * libcc-2.5-trunk
     by Evgeny Epifanovsky, Arik Landau, Tomasz Kus, Kirill Khistyaev, 
        Dmitry Zuev, Prashant Manohar, Xintian Feng, Anna Krylov, 
        Matthew Goldey, Alec White, Thomas Jagau, Kaushik Nanda, 
        Anastasia Gunina, Alexander Kunitsa, Joonho Lee.

   CCMAN original authors:
   Anna I. Krylov, C. David Sherrill, Steven R. Gwaltney,
   Edward F. C. Byrd (2000)
   Sergey V. Levchenko, Lyudmila V. Slipchenko, Tao Wang,
   Ana-Maria C. Cristian (2003)
   Piotr A. Pieniazek, C. Melania Oana, Evgeny Epifanovsky (2007)
   Prashant Manohar (2009)

 ------------------------------------------------------------------------------


 Allocating and initializing 1808MB of RAM...
 Calculation will run on 15 cores.

 
 Alpha MOs, Restricted
 -- Occupied --                  
-20.638 -20.626 -20.585 -11.414 -11.385  -1.503  -1.457  -1.404
  1 A'    2 A'    3 A'    4 A'    5 A'    6 A'    7 A'    8 A'                 
 -0.968  -0.851  -0.791  -0.722  -0.681  -0.669  -0.620  -0.580
  9 A'   10 A'   11 A'   12 A'   13 A'    1 A"   14 A'    2 A"                 
 -0.548  -0.509  -0.460
 15 A'    3 A"   16 A'                                                         
 -- Virtual --                   
  0.028   0.038   0.039   0.066   0.079   0.095   0.099   0.102
 17 A'   18 A'    4 A"   19 A'    5 A"   20 A'   21 A'    6 A"                 
  0.110   0.126   0.159   0.160   0.167   0.191   0.201   0.203
 22 A'   23 A'   24 A'    7 A"   25 A'   26 A'   27 A'    8 A"                 
  0.215   0.224   0.228   0.257   0.266   0.268   0.278   0.295
  9 A"   28 A'   29 A'   30 A'   10 A"   31 A'   32 A'   11 A"                 
  0.296   0.312   0.316   0.335   0.351   0.400   0.405   0.408
 33 A'   34 A'   12 A"   35 A'   36 A'   37 A'   13 A"   38 A'                 
  0.421   0.424   0.438   0.452   0.455   0.479   0.502   0.503
 14 A"   39 A'   40 A'   15 A"   41 A'   42 A'   43 A'   16 A"                 
  0.534   0.556   0.564   0.570   0.612   0.624   0.633   0.651
 44 A'   45 A'   17 A"   46 A'   18 A"   47 A'   48 A'   49 A'                 
  0.666   0.688   0.719   0.724   0.743   0.765   0.773   0.790
 50 A'   51 A'   19 A"   52 A'   20 A"   53 A'   54 A'   55 A'                 
  0.821   0.824   0.847   0.853   0.863   0.871   0.905   0.914
 56 A'   21 A"   22 A"   57 A'   23 A"   58 A'   24 A"   59 A'                 
  0.927   0.939   0.957   0.964   0.970   0.989   0.995   1.009
 60 A'   25 A"   61 A'   62 A'   26 A"   27 A"   63 A'   64 A'                 
  1.020   1.040   1.043   1.059   1.106   1.111   1.111   1.136
 65 A'   28 A"   66 A'   67 A'   68 A'   69 A'   29 A"   30 A"                 
  1.144   1.190   1.211   1.247   1.262   1.271   1.311   1.312
 70 A'   31 A"   71 A'   72 A'   32 A"   73 A'   74 A'   33 A"                 
  1.324   1.342   1.378   1.406   1.412   1.430   1.450   1.457
 75 A'   34 A"   76 A'   77 A'   35 A"   78 A'   79 A'   36 A"                 
  1.462   1.531   1.533   1.586   1.593   1.626   1.633   1.684
 80 A'   81 A'   37 A"   82 A'   38 A"   39 A"   83 A'   84 A'                 
  1.697   1.740   1.791   1.796   1.819   1.822   1.867   1.869
 40 A"   85 A'   86 A'   87 A'   88 A'   89 A'   41 A"   90 A'                 
  1.882   1.996   2.022   2.031   2.083   2.123   2.219   2.239
 42 A"   91 A'   92 A'   43 A"   93 A'   94 A'   95 A'   44 A"                 
  2.269   2.270   2.334   2.351   2.369   2.382   2.399   2.426
 96 A'   45 A"   46 A"   97 A'   47 A"   98 A'   99 A'   48 A"                 
  2.446   2.459   2.476   2.494   2.508   2.519   2.576   2.582
100 A'  101 A'   49 A"  102 A'   50 A"  103 A'   51 A"  104 A'                 
  2.598   2.623   2.660   2.703   2.748   2.761   2.767   2.776
 52 A"  105 A'  106 A'  107 A'  108 A'  109 A'   53 A"  110 A'                 
  2.808   2.821   2.847   2.892   2.909   2.926   2.930   2.992
 54 A"  111 A'   55 A"  112 A'   56 A"   57 A"  113 A'   58 A"                 
  3.001   3.023   3.081   3.147   3.187   3.247   3.249   3.266
114 A'  115 A'   59 A"  116 A'   60 A"  117 A'  118 A'   61 A"                 
  3.305   3.392   3.424   3.441   3.444   3.486   3.542   3.617
119 A'  120 A'   62 A"   63 A"  121 A'  122 A'  123 A'  124 A'                 
  3.681   3.704   3.749   3.785   3.851   3.856   3.875   3.952
125 A'   64 A"  126 A'  127 A'  128 A'   65 A"   66 A"   67 A"                 
  3.979   4.023   4.114   4.118   4.180   4.248   4.254   4.277
129 A'  130 A'   68 A"  131 A'  132 A'  133 A'   69 A"   70 A"                 
  4.323   4.332   4.367   4.419   4.447   4.517   4.562   4.680
 71 A"  134 A'  135 A'   72 A"  136 A'   73 A"  137 A'  138 A'                 
  4.695   4.727   4.796   4.819   4.828   4.965   5.002   5.059
 74 A"  139 A'  140 A'   75 A"  141 A'  142 A'  143 A'  144 A'                 
  5.081   5.136   5.159   5.238   5.246   5.322   5.419   5.422
 76 A"  145 A'   77 A"  146 A'   78 A"  147 A'  148 A'   79 A"                 
  5.501   5.656   5.771   6.045   6.218   6.285   6.403   6.515
149 A'  150 A'  151 A'  152 A'  153 A'  154 A'  155 A'  156 A'                 
  6.592   6.637   6.637   6.749   6.779   6.842   6.845   6.879
 80 A"  157 A'   81 A"  158 A'   82 A"   83 A"  159 A'   84 A"                 
  6.938   6.984   7.005   7.085   7.142   7.151   7.175   7.217
160 A'   85 A"  161 A'   86 A"   87 A"  162 A'   88 A"   89 A"                 
  7.235   7.328   7.342   7.374   7.383   7.443   7.503   7.505
163 A'  164 A'   90 A"   91 A"  165 A'  166 A'   92 A"  167 A'                 
  7.548   7.576   7.593   7.622   7.736   7.792   7.877   7.903
168 A'  169 A'   93 A"   94 A"  170 A'  171 A'  172 A'  173 A'                 
  7.936   7.982   8.360   8.512  14.649  15.412  16.238  17.179
174 A'  175 A'  176 A'  177 A'  178 A'  179 A'  180 A'  181 A'                 
 18.447
182 A'                                                                         
 
 Beta MOs, Restricted
 -- Occupied --                  
-20.638 -20.626 -20.585 -11.414 -11.385  -1.503  -1.457  -1.404
  1 A'    2 A'    3 A'    4 A'    5 A'    6 A'    7 A'    8 A'                 
 -0.968  -0.851  -0.791  -0.722  -0.681  -0.669  -0.620  -0.580
  9 A'   10 A'   11 A'   12 A'   13 A'    1 A"   14 A'    2 A"                 
 -0.548  -0.509  -0.460
 15 A'    3 A"   16 A'                                                         
 -- Virtual --                   
  0.028   0.038   0.039   0.066   0.079   0.095   0.099   0.102
 17 A'   18 A'    4 A"   19 A'    5 A"   20 A'   21 A'    6 A"                 
  0.110   0.126   0.159   0.160   0.167   0.191   0.201   0.203
 22 A'   23 A'   24 A'    7 A"   25 A'   26 A'   27 A'    8 A"                 
  0.215   0.224   0.228   0.257   0.266   0.268   0.278   0.295
  9 A"   28 A'   29 A'   30 A'   10 A"   31 A'   32 A'   11 A"                 
  0.296   0.312   0.316   0.335   0.351   0.400   0.405   0.408
 33 A'   34 A'   12 A"   35 A'   36 A'   37 A'   13 A"   38 A'                 
  0.421   0.424   0.438   0.452   0.455   0.479   0.502   0.503
 14 A"   39 A'   40 A'   15 A"   41 A'   42 A'   43 A'   16 A"                 
  0.534   0.556   0.564   0.570   0.612   0.624   0.633   0.651
 44 A'   45 A'   17 A"   46 A'   18 A"   47 A'   48 A'   49 A'                 
  0.666   0.688   0.719   0.724   0.743   0.765   0.773   0.790
 50 A'   51 A'   19 A"   52 A'   20 A"   53 A'   54 A'   55 A'                 
  0.821   0.824   0.847   0.853   0.863   0.871   0.905   0.914
 56 A'   21 A"   22 A"   57 A'   23 A"   58 A'   24 A"   59 A'                 
  0.927   0.939   0.957   0.964   0.970   0.989   0.995   1.009
 60 A'   25 A"   61 A'   62 A'   26 A"   27 A"   63 A'   64 A'                 
  1.020   1.040   1.043   1.059   1.106   1.111   1.111   1.136
 65 A'   28 A"   66 A'   67 A'   68 A'   69 A'   29 A"   30 A"                 
  1.144   1.190   1.211   1.247   1.262   1.271   1.311   1.312
 70 A'   31 A"   71 A'   72 A'   32 A"   73 A'   74 A'   33 A"                 
  1.324   1.342   1.378   1.406   1.412   1.430   1.450   1.457
 75 A'   34 A"   76 A'   77 A'   35 A"   78 A'   79 A'   36 A"                 
  1.462   1.531   1.533   1.586   1.593   1.626   1.633   1.684
 80 A'   81 A'   37 A"   82 A'   38 A"   39 A"   83 A'   84 A'                 
  1.697   1.740   1.791   1.796   1.819   1.822   1.867   1.869
 40 A"   85 A'   86 A'   87 A'   88 A'   89 A'   41 A"   90 A'                 
  1.882   1.996   2.022   2.031   2.083   2.123   2.219   2.239
 42 A"   91 A'   92 A'   43 A"   93 A'   94 A'   95 A'   44 A"                 
  2.269   2.270   2.334   2.351   2.369   2.382   2.399   2.426
 96 A'   45 A"   46 A"   97 A'   47 A"   98 A'   99 A'   48 A"                 
  2.446   2.459   2.476   2.494   2.508   2.519   2.576   2.582
100 A'  101 A'   49 A"  102 A'   50 A"  103 A'   51 A"  104 A'                 
  2.598   2.623   2.660   2.703   2.748   2.761   2.767   2.776
 52 A"  105 A'  106 A'  107 A'  108 A'  109 A'   53 A"  110 A'                 
  2.808   2.821   2.847   2.892   2.909   2.926   2.930   2.992
 54 A"  111 A'   55 A"  112 A'   56 A"   57 A"  113 A'   58 A"                 
  3.001   3.023   3.081   3.147   3.187   3.247   3.249   3.266
114 A'  115 A'   59 A"  116 A'   60 A"  117 A'  118 A'   61 A"                 
  3.305   3.392   3.424   3.441   3.444   3.486   3.542   3.617
119 A'  120 A'   62 A"   63 A"  121 A'  122 A'  123 A'  124 A'                 
  3.681   3.704   3.749   3.785   3.851   3.856   3.875   3.952
125 A'   64 A"  126 A'  127 A'  128 A'   65 A"   66 A"   67 A"                 
  3.979   4.023   4.114   4.118   4.180   4.248   4.254   4.277
129 A'  130 A'   68 A"  131 A'  132 A'  133 A'   69 A"   70 A"                 
  4.323   4.332   4.367   4.419   4.447   4.517   4.562   4.680
 71 A"  134 A'  135 A'   72 A"  136 A'   73 A"  137 A'  138 A'                 
  4.695   4.727   4.796   4.819   4.828   4.965   5.002   5.059
 74 A"  139 A'  140 A'   75 A"  141 A'  142 A'  143 A'  144 A'                 
  5.081   5.136   5.159   5.238   5.246   5.322   5.419   5.422
 76 A"  145 A'   77 A"  146 A'   78 A"  147 A'  148 A'   79 A"                 
  5.501   5.656   5.771   6.045   6.218   6.285   6.403   6.515
149 A'  150 A'  151 A'  152 A'  153 A'  154 A'  155 A'  156 A'                 
  6.592   6.637   6.637   6.749   6.779   6.842   6.845   6.879
 80 A"  157 A'   81 A"  158 A'   82 A"   83 A"  159 A'   84 A"                 
  6.938   6.984   7.005   7.085   7.142   7.151   7.175   7.217
160 A'   85 A"  161 A'   86 A"   87 A"  162 A'   88 A"   89 A"                 
  7.235   7.328   7.342   7.374   7.383   7.443   7.503   7.505
163 A'  164 A'   90 A"   91 A"  165 A'  166 A'   92 A"  167 A'                 
  7.548   7.576   7.593   7.622   7.736   7.792   7.877   7.903
168 A'  169 A'   93 A"   94 A"  170 A'  171 A'  172 A'  173 A'                 
  7.936   7.982   8.360   8.512  14.649  15.412  16.238  17.179
174 A'  175 A'  176 A'  177 A'  178 A'  179 A'  180 A'  181 A'                 
 18.447
182 A'                                                                         

 Occupation and symmetry of molecular orbitals

 Point group: Cs (2 irreducible representations).

                           A'   A"    All 
 ------------------------------------------
 All molecular orbitals:
  - Alpha                  182  94    276 
  - Beta                   182  94    276 
 ------------------------------------------
 Alpha orbitals:
  - Frozen occupied        5    0     5   
  - Active occupied        11   3     14  
  - Active virtual         166  91    257 
  - Frozen virtual         0    0     0   
 ------------------------------------------
 Beta orbitals:
  - Frozen occupied        5    0     5   
  - Active occupied        11   3     14  
  - Active virtual         166  91    257 
  - Frozen virtual         0    0     0   
 ------------------------------------------

 Import integrals:   CPU 0.00 s  wall 0.00 s

 Import integrals:   CPU 742.13 s  wall 154.77 s

 MP2 amplitudes:   CPU 3.27 s  wall 3.26 s

Running a double precision version
           CCSD T amplitudes will be solved using DIIS.

           Start     Size      MaxIter   EConv     TConv     
           3         7         100       1.00e-06  1.00e-04  
 ------------------------------------------------------------------------------
           Energy (a.u.)   Ediff      Tdiff       Comment
 ------------------------------------------------------------------------------
          -302.62596343                           
     1    -302.59459660   3.14e-02   8.44e-01     Step took 01.49.
     2    -302.62745427   3.29e-02   1.13e-01     
     3    -302.62355281   3.90e-03   4.81e-02     
     4    -302.62675902   3.21e-03   1.92e-02     Switched to DIIS steps.
     5    -302.62769093   9.32e-04   1.04e-02     
     6    -302.62774400   5.31e-05   2.15e-03     
     7    -302.62774461   6.06e-07   8.92e-04     
     8    -302.62774300   1.61e-06   2.94e-04     
     9    -302.62774460   1.60e-06   1.18e-04     
    10    -302.62774463   2.47e-08   3.36e-05     
 ------------------------------------------------------------------------------
          -302.62774463                           CCSD T converged.

End of double precision
 SCF energy                 = -301.60495333
 MP2 energy                 = -302.62596343
 CCSD correlation energy    =   -1.02279130
 CCSD total energy          = -302.62774463

 CCSD  T1^2 = 0.0150  T2^2 = 0.2779  Leading amplitudes:

 Amplitude    Orbitals with energies
  0.0390       1 (A") A                  ->    4 (A") A                   
              -0.6694                          0.0389                     
  0.0390       1 (A") B                  ->    4 (A") B                   
              -0.6694                          0.0389                     
 -0.0169       1 (A") A                  ->    5 (A") A                   
              -0.6694                          0.0787                     
 -0.0169       1 (A") B                  ->    5 (A") B                   
              -0.6694                          0.0787                     

 Amplitude    Orbitals with energies
 -0.0657       2 (A") A      2 (A") B    ->    4 (A") A      4 (A") B     
              -0.5801       -0.5801            0.0389        0.0389       
  0.0657       2 (A") A      2 (A") B    ->    4 (A") B      4 (A") A     
              -0.5801       -0.5801            0.0389        0.0389       
  0.0657       2 (A") B      2 (A") A    ->    4 (A") A      4 (A") B     
              -0.5801       -0.5801            0.0389        0.0389       
 -0.0657       2 (A") B      2 (A") A    ->    4 (A") B      4 (A") A     
              -0.5801       -0.5801            0.0389        0.0389       

 Computing CCSD intermediates for later calculations in double precision
 Finished.

 CCSD calculation:   CPU 7239.80 s  wall 7403.71 s

        Solving for EOMEE-CCSD A' singlet states.

Running a double precision version
        EOMEE-CCSD/MP2 right amplitudes will be solved using Davidson.
        Amplitudes will be solved using standard  algorithm.
     Hard-coded thresholds: 
     LinDepThresh=1.00e-15  NormThresh=1.00e-06  ReorthogonThresh=1.00e-02

      Roots     MaxVec    MaxIter   Precond   Conv      Shift    
      2         120       60        1         1.00e-05  0.00e+00  
 ------------------------------------------------------------------------------
      Iter ConvRoots NVecs ResNorm Current eigenvalues (eV)
 ------------------------------------------------------------------------------
      0    0      2     2.40e-01   12.1385   12.7494   
      1    0      4     1.44e-01   9.4404   10.0593   
      2    0      6     1.21e-02   8.0920   8.7879   
      3    0      8     5.08e-03   7.8022   8.5716   
      4    0      10    3.71e-03   7.6216   8.4258   
      5    0      12    7.48e-04   7.5474   8.3484   
      6    0      14    2.50e-04   7.5336   8.3352   
      7    0      16    2.64e-04   7.5278   8.3281   
      8    0      18    6.85e-04   7.5200   8.3110   
      9    0      20    1.01e-02   7.4994   8.0555   
      10   0      22    4.95e-03   7.4181   7.6496   
      11   0      24    1.95e-03   7.2832   7.5751   
      12   0      26    8.30e-04   7.2135   7.5630   
      13   0      28    3.08e-04   7.1853   7.5586   
      14   0      30    1.17e-04   7.1762   7.5563   
      15   0      32    4.61e-05   7.1708   7.5558   
      16   1      34    2.19e-05   7.1689   7.5553*  
      17   1      35    6.54e-06   7.1684   7.5552*  
      18   2      36    2.10e-06   7.1682*  7.5552*  

     Davidson procedure converged

 EOMEE transition 1/A'
 Total energy = -302.36431938 a.u.  Excitation energy = 7.1682 eV.
 R0^2 = 0.0000  R1^2 = 0.8994  R2^2 = 0.1006  Res^2 = 3.34e-06
 Conv-d = yes

 Amplitude    Transitions between orbitals
 -0.5821       3 (A") A                  ->    4 (A") A                   
 -0.5821       3 (A") B                  ->    4 (A") B                   
  0.2093       3 (A") A                  ->    5 (A") A                   
  0.2093       3 (A") B                  ->    5 (A") B                   
 -0.1096       16 (A') A                 ->    17 (A') A                  
 -0.1096       16 (A') B                 ->    17 (A') B                  

              Summary of significant orbitals:

               Number  Type             Irrep      Energy
               19      Occ  Alpha      16 (A')     -0.4603
               18      Occ  Alpha       3 (A")     -0.5092
               19      Occ  Beta       16 (A')     -0.4603
               18      Occ  Beta        3 (A")     -0.5092
               20      Vir  Alpha      17 (A')      0.0279
               22      Vir  Alpha       4 (A")      0.0389
               24      Vir  Alpha       5 (A")      0.0787
               20      Vir  Beta       17 (A')      0.0279
               22      Vir  Beta        4 (A")      0.0389
               24      Vir  Beta        5 (A")      0.0787


 EOMEE transition 2/A'
 Total energy = -302.35009542 a.u.  Excitation energy = 7.5552 eV.
 R0^2 = 0.0000  R1^2 = 0.9242  R2^2 = 0.0758  Res^2 = 8.68e-07
 Conv-d = yes

 Amplitude    Transitions between orbitals
 -0.5337       16 (A') A                 ->    17 (A') A                  
 -0.5337       16 (A') B                 ->    17 (A') B                  
  0.2216       16 (A') A                 ->    22 (A') A                  
  0.2216       16 (A') B                 ->    22 (A') B                  
  0.1499       16 (A') A                 ->    23 (A') A                  
  0.1499       16 (A') B                 ->    23 (A') B                  
  0.1430       16 (A') A                 ->    18 (A') A                  
  0.1430       16 (A') B                 ->    18 (A') B                  
 -0.1340       16 (A') A                 ->    20 (A') A                  
 -0.1340       16 (A') B                 ->    20 (A') B                  
 -0.1249       16 (A') A                 ->    24 (A') A                  
 -0.1249       16 (A') B                 ->    24 (A') B                  
  0.1202       3 (A") A                  ->    4 (A") A                   
  0.1202       3 (A") B                  ->    4 (A") B                   

              Summary of significant orbitals:

               Number  Type             Irrep      Energy
               19      Occ  Alpha      16 (A')     -0.4603
               18      Occ  Alpha       3 (A")     -0.5092
               19      Occ  Beta       16 (A')     -0.4603
               18      Occ  Beta        3 (A")     -0.5092
               20      Vir  Alpha      17 (A')      0.0279
               21      Vir  Alpha      18 (A')      0.0379
               25      Vir  Alpha      20 (A')      0.0953
               28      Vir  Alpha      22 (A')      0.1104
               29      Vir  Alpha      23 (A')      0.1264
               30      Vir  Alpha      24 (A')      0.1592
               22      Vir  Alpha       4 (A")      0.0389
               20      Vir  Beta       17 (A')      0.0279
               21      Vir  Beta       18 (A')      0.0379
               25      Vir  Beta       20 (A')      0.0953
               28      Vir  Beta       22 (A')      0.1104
               29      Vir  Beta       23 (A')      0.1264
               30      Vir  Beta       24 (A')      0.1592
               22      Vir  Beta        4 (A")      0.0389


 EEs and amplitudes of EOMEE has be exported to fchk file
        Solving for EOMEE-CCSD A" singlet states.

Running a double precision version
        EOMEE-CCSD/MP2 right amplitudes will be solved using Davidson.
        Amplitudes will be solved using standard  algorithm.
     Hard-coded thresholds: 
     LinDepThresh=1.00e-15  NormThresh=1.00e-06  ReorthogonThresh=1.00e-02

      Roots     MaxVec    MaxIter   Precond   Conv      Shift    
      2         120       60        1         1.00e-05  0.00e+00  
 ------------------------------------------------------------------------------
      Iter ConvRoots NVecs ResNorm Current eigenvalues (eV)
 ------------------------------------------------------------------------------
      0    0      2     3.68e-01   9.2781   12.8430   
      1    0      4     2.25e-01   6.2863   10.1118   
      2    0      6     1.29e-02   4.0059   8.8975   
      3    0      8     3.59e-03   3.7702   8.7401   
      4    0      10    3.05e-03   3.7096   8.6360   
      5    0      12    3.21e-02   3.6871   7.9286   
      6    0      14    1.60e-02   3.6722   6.3304   
      7    0      16    5.05e-03   3.6685   5.7663   
      8    0      18    1.77e-03   3.6668   5.6014   
      9    1      20    7.96e-04   3.6667*  5.5292   
      10   1      21    2.44e-04   3.6665*  5.4939   
      11   1      22    4.28e-05   3.6666*  5.4868   
      12   1      23    6.98e-06   3.6666*  5.4857   
      13   2      24    1.59e-06   3.6666*  5.4856*  

     Davidson procedure converged

 EOMEE transition 1/A"
 Total energy = -302.49299960 a.u.  Excitation energy = 3.6666 eV.
 R0^2 = 0.0000  R1^2 = 0.9264  R2^2 = 0.0736  Res^2 = 8.27e-07
 Conv-d = yes

 Amplitude    Transitions between orbitals
  0.6073       16 (A') A                 ->    4 (A") A                   
  0.6073       16 (A') B                 ->    4 (A") B                   
 -0.2056       16 (A') A                 ->    5 (A") A                   
 -0.2056       16 (A') B                 ->    5 (A") B                   
  0.1188       15 (A') A                 ->    4 (A") A                   
  0.1188       15 (A') B                 ->    4 (A") B                   

              Summary of significant orbitals:

               Number  Type             Irrep      Energy
               17      Occ  Alpha      15 (A')     -0.5475
               19      Occ  Alpha      16 (A')     -0.4603
               17      Occ  Beta       15 (A')     -0.5475
               19      Occ  Beta       16 (A')     -0.4603
               22      Vir  Alpha       4 (A")      0.0389
               24      Vir  Alpha       5 (A")      0.0787
               22      Vir  Beta        4 (A")      0.0389
               24      Vir  Beta        5 (A")      0.0787


 EOMEE transition 2/A"
 Total energy = -302.42615352 a.u.  Excitation energy = 5.4856 eV.
 R0^2 = 0.0000  R1^2 = 0.9176  R2^2 = 0.0824  Res^2 = 2.35e-06
 Conv-d = yes

 Amplitude    Transitions between orbitals
  0.5584       15 (A') A                 ->    4 (A") A                   
  0.5584       15 (A') B                 ->    4 (A") B                   
 -0.2001       15 (A') A                 ->    5 (A") A                   
 -0.2001       15 (A') B                 ->    5 (A") B                   
  0.1516       16 (A') A                 ->    8 (A") A                   
  0.1516       16 (A') B                 ->    8 (A") B                   
 -0.1292       16 (A') A                 ->    10 (A") A                  
 -0.1292       16 (A') B                 ->    10 (A") B                  
 -0.1058       16 (A') A                 ->    4 (A") A                   
 -0.1058       16 (A') B                 ->    4 (A") B                   

              Summary of significant orbitals:

               Number  Type             Irrep      Energy
               17      Occ  Alpha      15 (A')     -0.5475
               19      Occ  Alpha      16 (A')     -0.4603
               17      Occ  Beta       15 (A')     -0.5475
               19      Occ  Beta       16 (A')     -0.4603
               22      Vir  Alpha       4 (A")      0.0389
               24      Vir  Alpha       5 (A")      0.0787
               35      Vir  Alpha       8 (A")      0.2030
               40      Vir  Alpha      10 (A")      0.2660
               22      Vir  Beta        4 (A")      0.0389
               24      Vir  Beta        5 (A")      0.0787
               35      Vir  Beta        8 (A")      0.2030
               40      Vir  Beta       10 (A")      0.2660


 EEs and amplitudes of EOMEE has be exported to fchk file
        Solving for EOMEE-CCSD A' triplet states.

Running a double precision version
        EOMEE-CCSD/MP2 right amplitudes will be solved using Davidson.
        Amplitudes will be solved using standard  algorithm.
     Hard-coded thresholds: 
     LinDepThresh=1.00e-15  NormThresh=1.00e-06  ReorthogonThresh=1.00e-02

      Roots     MaxVec    MaxIter   Precond   Conv      Shift    
      3         120       60        1         1.00e-05  0.00e+00  
 ------------------------------------------------------------------------------
      Iter ConvRoots NVecs ResNorm Current eigenvalues (eV)
 ------------------------------------------------------------------------------
      0    0      3     2.40e-01   12.1110   12.7215   13.1313   
      1    0      6     1.43e-01   9.4125   10.0300   10.4525   
      2    0      9     1.27e-02   8.0468   8.7375   9.1351   
      3    0      12    5.85e-03   7.7248   8.4793   8.8721   
      4    0      15    3.96e-03   7.5273   8.2924   8.7091   
      5    0      18    9.13e-04   7.4526   8.1993   8.6235   
      6    0      21    4.96e-04   7.4404   8.1824   8.5856   
      7    0      24    7.77e-04   7.4361   8.1699   8.5519   
      8    0      27    2.27e-02   7.3998   7.6512   8.2165   
      9    0      30    8.94e-03   6.0836   7.4434   8.1838   
Found complex roots...
      10   0      33    2.22e-02   5.5883   7.4397   8.1534   
      11   0      36    8.21e-03   5.4706   6.5058   7.4394   
      12   1      39    1.75e-03   5.4324   6.1313   7.4397*  
      13   1      41    3.03e-04   5.4213   6.0670   7.4393*  
      14   1      43    7.54e-05   5.4192   6.0542   7.4391*  
      15   2      45    2.15e-05   5.4188*  6.0506   7.4392*  
      16   2      46    9.19e-06   5.4186*  6.0494   7.4392*  
      17   3      47    3.50e-06   5.4185*  6.0488*  7.4392*  

     Davidson procedure converged

 EOMEE transition 1/A'
 Total energy = -302.42861844 a.u.  Excitation energy = 5.4185 eV.
 R0^2 = 0.0000  R1^2 = 0.9421  R2^2 = 0.0579  Res^2 = 2.39e-06
 Conv-d = yes

 Amplitude    Transitions between orbitals
 -0.5593       3 (A") A                  ->    4 (A") A                   
  0.5593       3 (A") B                  ->    4 (A") B                   
  0.2064       3 (A") A                  ->    5 (A") A                   
 -0.2064       3 (A") B                  ->    5 (A") B                   
 -0.1657       2 (A") A                  ->    4 (A") A                   
  0.1657       2 (A") B                  ->    4 (A") B                   
  0.1501       3 (A") A                  ->    8 (A") A                   
 -0.1501       3 (A") B                  ->    8 (A") B                   
 -0.1314       3 (A") A                  ->    10 (A") A                  
  0.1314       3 (A") B                  ->    10 (A") B                  
  0.1130       3 (A") A                  ->    7 (A") A                   
 -0.1130       3 (A") B                  ->    7 (A") B                   

              Summary of significant orbitals:

               Number  Type             Irrep      Energy
               16      Occ  Alpha       2 (A")     -0.5801
               18      Occ  Alpha       3 (A")     -0.5092
               16      Occ  Beta        2 (A")     -0.5801
               18      Occ  Beta        3 (A")     -0.5092
               22      Vir  Alpha       4 (A")      0.0389
               24      Vir  Alpha       5 (A")      0.0787
               31      Vir  Alpha       7 (A")      0.1595
               35      Vir  Alpha       8 (A")      0.2030
               40      Vir  Alpha      10 (A")      0.2660
               22      Vir  Beta        4 (A")      0.0389
               24      Vir  Beta        5 (A")      0.0787
               31      Vir  Beta        7 (A")      0.1595
               35      Vir  Beta        8 (A")      0.2030
               40      Vir  Beta       10 (A")      0.2660


 EOMEE transition 2/A'
 Total energy = -302.40545509 a.u.  Excitation energy = 6.0488 eV.
 R0^2 = 0.0000  R1^2 = 0.9569  R2^2 = 0.0431  Res^2 = 7.72e-06
 Conv-d = yes

 Amplitude    Transitions between orbitals
  0.5772       2 (A") A                  ->    4 (A") A                   
 -0.5772       2 (A") B                  ->    4 (A") B                   
 -0.1874       2 (A") A                  ->    5 (A") A                   
  0.1874       2 (A") B                  ->    5 (A") B                   
 -0.1356       3 (A") A                  ->    4 (A") A                   
  0.1356       3 (A") B                  ->    4 (A") B                   
  0.1171       1 (A") A                  ->    4 (A") A                   
 -0.1171       1 (A") B                  ->    4 (A") B                   
 -0.1034       2 (A") A                  ->    12 (A") A                  
  0.1034       2 (A") B                  ->    12 (A") B                  
 -0.1024       2 (A") A                  ->    9 (A") A                   
  0.1024       2 (A") B                  ->    9 (A") B                   

              Summary of significant orbitals:

               Number  Type             Irrep      Energy
               14      Occ  Alpha       1 (A")     -0.6694
               16      Occ  Alpha       2 (A")     -0.5801
               18      Occ  Alpha       3 (A")     -0.5092
               14      Occ  Beta        1 (A")     -0.6694
               16      Occ  Beta        2 (A")     -0.5801
               18      Occ  Beta        3 (A")     -0.5092
               22      Vir  Alpha       4 (A")      0.0389
               24      Vir  Alpha       5 (A")      0.0787
               36      Vir  Alpha       9 (A")      0.2148
               46      Vir  Alpha      12 (A")      0.3164
               22      Vir  Beta        4 (A")      0.0389
               24      Vir  Beta        5 (A")      0.0787
               36      Vir  Beta        9 (A")      0.2148
               46      Vir  Beta       12 (A")      0.3164


 EOMEE transition 3/A'
 Total energy = -302.35436009 a.u.  Excitation energy = 7.4392 eV.
 R0^2 = 0.0000  R1^2 = 0.9273  R2^2 = 0.0727  Res^2 = 3.85e-07
 Conv-d = yes

 Amplitude    Transitions between orbitals
 -0.5331       16 (A') A                 ->    17 (A') A                  
  0.5331       16 (A') B                 ->    17 (A') B                  
  0.2306       16 (A') A                 ->    22 (A') A                  
 -0.2306       16 (A') B                 ->    22 (A') B                  
  0.1585       16 (A') A                 ->    23 (A') A                  
 -0.1585       16 (A') B                 ->    23 (A') B                  
  0.1499       16 (A') A                 ->    18 (A') A                  
 -0.1499       16 (A') B                 ->    18 (A') B                  
 -0.1416       16 (A') A                 ->    24 (A') A                  
  0.1416       16 (A') B                 ->    24 (A') B                  
 -0.1409       16 (A') A                 ->    20 (A') A                  
  0.1409       16 (A') B                 ->    20 (A') B                  

              Summary of significant orbitals:

               Number  Type             Irrep      Energy
               19      Occ  Alpha      16 (A')     -0.4603
               19      Occ  Beta       16 (A')     -0.4603
               20      Vir  Alpha      17 (A')      0.0279
               21      Vir  Alpha      18 (A')      0.0379
               25      Vir  Alpha      20 (A')      0.0953
               28      Vir  Alpha      22 (A')      0.1104
               29      Vir  Alpha      23 (A')      0.1264
               30      Vir  Alpha      24 (A')      0.1592
               20      Vir  Beta       17 (A')      0.0279
               21      Vir  Beta       18 (A')      0.0379
               25      Vir  Beta       20 (A')      0.0953
               28      Vir  Beta       22 (A')      0.1104
               29      Vir  Beta       23 (A')      0.1264
               30      Vir  Beta       24 (A')      0.1592


 EEs and amplitudes of EOMEE has be exported to fchk file
        Solving for EOMEE-CCSD A" triplet states.

Running a double precision version
        EOMEE-CCSD/MP2 right amplitudes will be solved using Davidson.
        Amplitudes will be solved using standard  algorithm.
     Hard-coded thresholds: 
     LinDepThresh=1.00e-15  NormThresh=1.00e-06  ReorthogonThresh=1.00e-02

      Roots     MaxVec    MaxIter   Precond   Conv      Shift    
      3         120       60        1         1.00e-05  0.00e+00  
 ------------------------------------------------------------------------------
      Iter ConvRoots NVecs ResNorm Current eigenvalues (eV)
 ------------------------------------------------------------------------------
      0    0      3     3.20e-01   8.7208   12.8236   14.1313   
      1    0      6     1.97e-01   5.7892   10.0987   11.4963   
      2    0      9     1.43e-02   3.5531   8.8806   10.0366   
      3    0      12    6.24e-03   3.3248   8.7104   9.5906   
      4    0      15    6.38e-03   3.2668   8.5517   9.2233   
      5    0      18    2.86e-02   3.2432   7.0686   8.8413   
      6    0      21    9.23e-03   3.2288   5.6849   8.6427   
      7    0      24    4.67e-03   3.2253   5.2772   8.4681   
      8    0      27    2.23e-03   3.2240   5.1583   8.2881   
      9    1      30    1.17e-03   3.2240*  5.1178   8.1758   
      10   1      32    7.00e-04   3.2240*  5.1054   8.1192   
      11   1      34    7.37e-04   3.2240*  5.1025   8.0609   
      12   2      36    4.94e-04   3.2240*  5.1020*  8.0053   
      13   2      37    2.88e-04   3.2240*  5.1019*  7.9759   
      14   2      38    2.15e-04   3.2240*  5.1019*  7.9522   
      15   2      39    1.43e-04   3.2240*  5.1019*  7.9402   
      16   2      40    6.60e-05   3.2240*  5.1019*  7.9300   
      17   2      41    3.25e-05   3.2240*  5.1019*  7.9264   
      18   2      42    1.54e-05   3.2240*  5.1019*  7.9246   
      19   2      43    6.67e-06   3.2240*  5.1019*  7.9237   
      20   3      44    3.95e-06   3.2240*  5.1019*  7.9237*  

     Davidson procedure converged

 EOMEE transition 1/A"
 Total energy = -302.50926354 a.u.  Excitation energy = 3.2240 eV.
 R0^2 = 0.0000  R1^2 = 0.9378  R2^2 = 0.0622  Res^2 = 2.58e-07
 Conv-d = yes

 Amplitude    Transitions between orbitals
 -0.6074       16 (A') A                 ->    4 (A") A                   
  0.6074       16 (A') B                 ->    4 (A") B                   
  0.2053       16 (A') A                 ->    5 (A") A                   
 -0.2053       16 (A') B                 ->    5 (A") B                   
 -0.1273       15 (A') A                 ->    4 (A") A                   
  0.1273       15 (A') B                 ->    4 (A") B                   

              Summary of significant orbitals:

               Number  Type             Irrep      Energy
               17      Occ  Alpha      15 (A')     -0.5475
               19      Occ  Alpha      16 (A')     -0.4603
               17      Occ  Beta       15 (A')     -0.5475
               19      Occ  Beta       16 (A')     -0.4603
               22      Vir  Alpha       4 (A")      0.0389
               24      Vir  Alpha       5 (A")      0.0787
               22      Vir  Beta        4 (A")      0.0389
               24      Vir  Beta        5 (A")      0.0787


 EOMEE transition 2/A"
 Total energy = -302.44025347 a.u.  Excitation energy = 5.1019 eV.
 R0^2 = 0.0000  R1^2 = 0.9317  R2^2 = 0.0683  Res^2 = 4.95e-06
 Conv-d = yes

 Amplitude    Transitions between orbitals
 -0.5571       15 (A') A                 ->    4 (A") A                   
  0.5571       15 (A') B                 ->    4 (A") B                   
  0.1942       15 (A') A                 ->    5 (A") A                   
 -0.1942       15 (A') B                 ->    5 (A") B                   
 -0.1581       16 (A') A                 ->    8 (A") A                   
  0.1581       16 (A') B                 ->    8 (A") B                   
  0.1413       16 (A') A                 ->    10 (A") A                  
 -0.1413       16 (A') B                 ->    10 (A") B                  
  0.1094       16 (A') A                 ->    4 (A") A                   
 -0.1094       16 (A') B                 ->    4 (A") B                   

              Summary of significant orbitals:

               Number  Type             Irrep      Energy
               17      Occ  Alpha      15 (A')     -0.5475
               19      Occ  Alpha      16 (A')     -0.4603
               17      Occ  Beta       15 (A')     -0.5475
               19      Occ  Beta       16 (A')     -0.4603
               22      Vir  Alpha       4 (A")      0.0389
               24      Vir  Alpha       5 (A")      0.0787
               35      Vir  Alpha       8 (A")      0.2030
               40      Vir  Alpha      10 (A")      0.2660
               22      Vir  Beta        4 (A")      0.0389
               24      Vir  Beta        5 (A")      0.0787
               35      Vir  Beta        8 (A")      0.2030
               40      Vir  Beta       10 (A")      0.2660


 EOMEE transition 3/A"
 Total energy = -302.33655409 a.u.  Excitation energy = 7.9237 eV.
 R0^2 = 0.0000  R1^2 = 0.9244  R2^2 = 0.0756  Res^2 = 6.65e-06
 Conv-d = yes

 Amplitude    Transitions between orbitals
 -0.4723       14 (A') A                 ->    4 (A") A                   
  0.4723       14 (A') B                 ->    4 (A") B                   
 -0.1909       13 (A') A                 ->    4 (A") A                   
  0.1909       13 (A') B                 ->    4 (A") B                   
  0.1714       14 (A') A                 ->    5 (A") A                   
 -0.1714       14 (A') B                 ->    5 (A") B                   
  0.1300       16 (A') A                 ->    8 (A") A                   
 -0.1300       16 (A') B                 ->    8 (A") B                   
 -0.1265       12 (A') A                 ->    4 (A") A                   
  0.1265       12 (A') B                 ->    4 (A") B                   
 -0.1242       15 (A') A                 ->    8 (A") A                   
  0.1242       15 (A') B                 ->    8 (A") B                   
 -0.1232       11 (A') A                 ->    4 (A") A                   
  0.1232       11 (A') B                 ->    4 (A") B                   
  0.1085       15 (A') A                 ->    10 (A") A                  
 -0.1085       15 (A') B                 ->    10 (A") B                  
  0.1029       16 (A') A                 ->    4 (A") A                   
 -0.1029       16 (A') B                 ->    4 (A") B                   

              Summary of significant orbitals:

               Number  Type             Irrep      Energy
               11      Occ  Alpha      11 (A')     -0.7907
               12      Occ  Alpha      12 (A')     -0.7224
               13      Occ  Alpha      13 (A')     -0.6814
               15      Occ  Alpha      14 (A')     -0.6198
               17      Occ  Alpha      15 (A')     -0.5475
               19      Occ  Alpha      16 (A')     -0.4603
               11      Occ  Beta       11 (A')     -0.7907
               12      Occ  Beta       12 (A')     -0.7224
               13      Occ  Beta       13 (A')     -0.6814
               15      Occ  Beta       14 (A')     -0.6198
               17      Occ  Beta       15 (A')     -0.5475
               19      Occ  Beta       16 (A')     -0.4603
               22      Vir  Alpha       4 (A")      0.0389
               24      Vir  Alpha       5 (A")      0.0787
               35      Vir  Alpha       8 (A")      0.2030
               40      Vir  Alpha      10 (A")      0.2660
               22      Vir  Beta        4 (A")      0.0389
               24      Vir  Beta        5 (A")      0.0787
               35      Vir  Beta        8 (A")      0.2030
               40      Vir  Beta       10 (A")      0.2660


 EEs and amplitudes of EOMEE has be exported to fchk file
 EOMEE-CCSD calculation:   CPU 37592.98 s  wall 25742.71 s

 Total ccman2 time:   CPU 45659.52 s  wall 33314.02 s

 
 --------------------------------------------------------------
             Orbital Energies (a.u.) and Symmetries
 --------------------------------------------------------------
 
 Alpha MOs, Restricted
 -- Occupied --                  
-20.638 -20.626 -20.585 -11.414 -11.385  -1.503  -1.457  -1.404
  1 A'    2 A'    3 A'    4 A'    5 A'    6 A'    7 A'    8 A'                 
 -0.968  -0.851  -0.791  -0.722  -0.681  -0.669  -0.620  -0.580
  9 A'   10 A'   11 A'   12 A'   13 A'    1 A"   14 A'    2 A"                 
 -0.548  -0.509  -0.460
 15 A'    3 A"   16 A'                                                         
 -- Virtual --                   
  0.028   0.038   0.039   0.066   0.079   0.095   0.099   0.102
 17 A'   18 A'    4 A"   19 A'    5 A"   20 A'   21 A'    6 A"                 
  0.110   0.126   0.159   0.160   0.167   0.191   0.201   0.203
 22 A'   23 A'   24 A'    7 A"   25 A'   26 A'   27 A'    8 A"                 
  0.215   0.224   0.228   0.257   0.266   0.268   0.278   0.295
  9 A"   28 A'   29 A'   30 A'   10 A"   31 A'   32 A'   11 A"                 
  0.296   0.312   0.316   0.335   0.351   0.400   0.405   0.408
 33 A'   34 A'   12 A"   35 A'   36 A'   37 A'   13 A"   38 A'                 
  0.421   0.424   0.438   0.452   0.455   0.479   0.502   0.503
 14 A"   39 A'   40 A'   15 A"   41 A'   42 A'   43 A'   16 A"                 
  0.534   0.556   0.564   0.570   0.612   0.624   0.633   0.651
 44 A'   45 A'   17 A"   46 A'   18 A"   47 A'   48 A'   49 A'                 
  0.666   0.688   0.719   0.724   0.743   0.765   0.773   0.790
 50 A'   51 A'   19 A"   52 A'   20 A"   53 A'   54 A'   55 A'                 
  0.821   0.824   0.847   0.853   0.863   0.871   0.905   0.914
 56 A'   21 A"   22 A"   57 A'   23 A"   58 A'   24 A"   59 A'                 
  0.927   0.939   0.957   0.964   0.970   0.989   0.995   1.009
 60 A'   25 A"   61 A'   62 A'   26 A"   27 A"   63 A'   64 A'                 
  1.020   1.040   1.043   1.059   1.106   1.111   1.111   1.136
 65 A'   28 A"   66 A'   67 A'   68 A'   69 A'   29 A"   30 A"                 
  1.144   1.190   1.211   1.247   1.262   1.271   1.311   1.312
 70 A'   31 A"   71 A'   72 A'   32 A"   73 A'   74 A'   33 A"                 
  1.324   1.342   1.378   1.406   1.412   1.430   1.450   1.457
 75 A'   34 A"   76 A'   77 A'   35 A"   78 A'   79 A'   36 A"                 
  1.462   1.531   1.533   1.586   1.593   1.626   1.633   1.684
 80 A'   81 A'   37 A"   82 A'   38 A"   39 A"   83 A'   84 A'                 
  1.697   1.740   1.791   1.796   1.819   1.822   1.867   1.869
 40 A"   85 A'   86 A'   87 A'   88 A'   89 A'   41 A"   90 A'                 
  1.882   1.996   2.022   2.031   2.083   2.123   2.219   2.239
 42 A"   91 A'   92 A'   43 A"   93 A'   94 A'   95 A'   44 A"                 
  2.269   2.270   2.334   2.351   2.369   2.382   2.399   2.426
 96 A'   45 A"   46 A"   97 A'   47 A"   98 A'   99 A'   48 A"                 
  2.446   2.459   2.476   2.494   2.508   2.519   2.576   2.582
100 A'  101 A'   49 A"  102 A'   50 A"  103 A'   51 A"  104 A'                 
  2.598   2.623   2.660   2.703   2.748   2.761   2.767   2.776
 52 A"  105 A'  106 A'  107 A'  108 A'  109 A'   53 A"  110 A'                 
  2.808   2.821   2.847   2.892   2.909   2.926   2.930   2.992
 54 A"  111 A'   55 A"  112 A'   56 A"   57 A"  113 A'   58 A"                 
  3.001   3.023   3.081   3.147   3.187   3.247   3.249   3.266
114 A'  115 A'   59 A"  116 A'   60 A"  117 A'  118 A'   61 A"                 
  3.305   3.392   3.424   3.441   3.444   3.486   3.542   3.617
119 A'  120 A'   62 A"   63 A"  121 A'  122 A'  123 A'  124 A'                 
  3.681   3.704   3.749   3.785   3.851   3.856   3.875   3.952
125 A'   64 A"  126 A'  127 A'  128 A'   65 A"   66 A"   67 A"                 
  3.979   4.023   4.114   4.118   4.180   4.248   4.254   4.277
129 A'  130 A'   68 A"  131 A'  132 A'  133 A'   69 A"   70 A"                 
  4.323   4.332   4.367   4.419   4.447   4.517   4.562   4.680
 71 A"  134 A'  135 A'   72 A"  136 A'   73 A"  137 A'  138 A'                 
  4.695   4.727   4.796   4.819   4.828   4.965   5.002   5.059
 74 A"  139 A'  140 A'   75 A"  141 A'  142 A'  143 A'  144 A'                 
  5.081   5.136   5.159   5.238   5.246   5.322   5.419   5.422
 76 A"  145 A'   77 A"  146 A'   78 A"  147 A'  148 A'   79 A"                 
  5.501   5.656   5.771   6.045   6.218   6.285   6.403   6.515
149 A'  150 A'  151 A'  152 A'  153 A'  154 A'  155 A'  156 A'                 
  6.592   6.637   6.637   6.749   6.779   6.842   6.845   6.879
 80 A"  157 A'   81 A"  158 A'   82 A"   83 A"  159 A'   84 A"                 
  6.938   6.984   7.005   7.085   7.142   7.151   7.175   7.217
160 A'   85 A"  161 A'   86 A"   87 A"  162 A'   88 A"   89 A"                 
  7.235   7.328   7.342   7.374   7.383   7.443   7.503   7.505
163 A'  164 A'   90 A"   91 A"  165 A'  166 A'   92 A"  167 A'                 
  7.548   7.576   7.593   7.622   7.736   7.792   7.877   7.903
168 A'  169 A'   93 A"   94 A"  170 A'  171 A'  172 A'  173 A'                 
  7.936   7.982   8.360   8.512  14.649  15.412  16.238  17.179
174 A'  175 A'  176 A'  177 A'  178 A'  179 A'  180 A'  181 A'                 
 18.447
182 A'                                                                         
 
 Beta MOs, Restricted
 -- Occupied --                  
-20.638 -20.626 -20.585 -11.414 -11.385  -1.503  -1.457  -1.404
  1 A'    2 A'    3 A'    4 A'    5 A'    6 A'    7 A'    8 A'                 
 -0.968  -0.851  -0.791  -0.722  -0.681  -0.669  -0.620  -0.580
  9 A'   10 A'   11 A'   12 A'   13 A'    1 A"   14 A'    2 A"                 
 -0.548  -0.509  -0.460
 15 A'    3 A"   16 A'                                                         
 -- Virtual --                   
  0.028   0.038   0.039   0.066   0.079   0.095   0.099   0.102
 17 A'   18 A'    4 A"   19 A'    5 A"   20 A'   21 A'    6 A"                 
  0.110   0.126   0.159   0.160   0.167   0.191   0.201   0.203
 22 A'   23 A'   24 A'    7 A"   25 A'   26 A'   27 A'    8 A"                 
  0.215   0.224   0.228   0.257   0.266   0.268   0.278   0.295
  9 A"   28 A'   29 A'   30 A'   10 A"   31 A'   32 A'   11 A"                 
  0.296   0.312   0.316   0.335   0.351   0.400   0.405   0.408
 33 A'   34 A'   12 A"   35 A'   36 A'   37 A'   13 A"   38 A'                 
  0.421   0.424   0.438   0.452   0.455   0.479   0.502   0.503
 14 A"   39 A'   40 A'   15 A"   41 A'   42 A'   43 A'   16 A"                 
  0.534   0.556   0.564   0.570   0.612   0.624   0.633   0.651
 44 A'   45 A'   17 A"   46 A'   18 A"   47 A'   48 A'   49 A'                 
  0.666   0.688   0.719   0.724   0.743   0.765   0.773   0.790
 50 A'   51 A'   19 A"   52 A'   20 A"   53 A'   54 A'   55 A'                 
  0.821   0.824   0.847   0.853   0.863   0.871   0.905   0.914
 56 A'   21 A"   22 A"   57 A'   23 A"   58 A'   24 A"   59 A'                 
  0.927   0.939   0.957   0.964   0.970   0.989   0.995   1.009
 60 A'   25 A"   61 A'   62 A'   26 A"   27 A"   63 A'   64 A'                 
  1.020   1.040   1.043   1.059   1.106   1.111   1.111   1.136
 65 A'   28 A"   66 A'   67 A'   68 A'   69 A'   29 A"   30 A"                 
  1.144   1.190   1.211   1.247   1.262   1.271   1.311   1.312
 70 A'   31 A"   71 A'   72 A'   32 A"   73 A'   74 A'   33 A"                 
  1.324   1.342   1.378   1.406   1.412   1.430   1.450   1.457
 75 A'   34 A"   76 A'   77 A'   35 A"   78 A'   79 A'   36 A"                 
  1.462   1.531   1.533   1.586   1.593   1.626   1.633   1.684
 80 A'   81 A'   37 A"   82 A'   38 A"   39 A"   83 A'   84 A'                 
  1.697   1.740   1.791   1.796   1.819   1.822   1.867   1.869
 40 A"   85 A'   86 A'   87 A'   88 A'   89 A'   41 A"   90 A'                 
  1.882   1.996   2.022   2.031   2.083   2.123   2.219   2.239
 42 A"   91 A'   92 A'   43 A"   93 A'   94 A'   95 A'   44 A"                 
  2.269   2.270   2.334   2.351   2.369   2.382   2.399   2.426
 96 A'   45 A"   46 A"   97 A'   47 A"   98 A'   99 A'   48 A"                 
  2.446   2.459   2.476   2.494   2.508   2.519   2.576   2.582
100 A'  101 A'   49 A"  102 A'   50 A"  103 A'   51 A"  104 A'                 
  2.598   2.623   2.660   2.703   2.748   2.761   2.767   2.776
 52 A"  105 A'  106 A'  107 A'  108 A'  109 A'   53 A"  110 A'                 
  2.808   2.821   2.847   2.892   2.909   2.926   2.930   2.992
 54 A"  111 A'   55 A"  112 A'   56 A"   57 A"  113 A'   58 A"                 
  3.001   3.023   3.081   3.147   3.187   3.247   3.249   3.266
114 A'  115 A'   59 A"  116 A'   60 A"  117 A'  118 A'   61 A"                 
  3.305   3.392   3.424   3.441   3.444   3.486   3.542   3.617
119 A'  120 A'   62 A"   63 A"  121 A'  122 A'  123 A'  124 A'                 
  3.681   3.704   3.749   3.785   3.851   3.856   3.875   3.952
125 A'   64 A"  126 A'  127 A'  128 A'   65 A"   66 A"   67 A"                 
  3.979   4.023   4.114   4.118   4.180   4.248   4.254   4.277
129 A'  130 A'   68 A"  131 A'  132 A'  133 A'   69 A"   70 A"                 
  4.323   4.332   4.367   4.419   4.447   4.517   4.562   4.680
 71 A"  134 A'  135 A'   72 A"  136 A'   73 A"  137 A'  138 A'                 
  4.695   4.727   4.796   4.819   4.828   4.965   5.002   5.059
 74 A"  139 A'  140 A'   75 A"  141 A'  142 A'  143 A'  144 A'                 
  5.081   5.136   5.159   5.238   5.246   5.322   5.419   5.422
 76 A"  145 A'   77 A"  146 A'   78 A"  147 A'  148 A'   79 A"                 
  5.501   5.656   5.771   6.045   6.218   6.285   6.403   6.515
149 A'  150 A'  151 A'  152 A'  153 A'  154 A'  155 A'  156 A'                 
  6.592   6.637   6.637   6.749   6.779   6.842   6.845   6.879
 80 A"  157 A'   81 A"  158 A'   82 A"   83 A"  159 A'   84 A"                 
  6.938   6.984   7.005   7.085   7.142   7.151   7.175   7.217
160 A'   85 A"  161 A'   86 A"   87 A"  162 A'   88 A"   89 A"                 
  7.235   7.328   7.342   7.374   7.383   7.443   7.503   7.505
163 A'  164 A'   90 A"   91 A"  165 A'  166 A'   92 A"  167 A'                 
  7.548   7.576   7.593   7.622   7.736   7.792   7.877   7.903
168 A'  169 A'   93 A"   94 A"  170 A'  171 A'  172 A'  173 A'                 
  7.936   7.982   8.360   8.512  14.649  15.412  16.238  17.179
174 A'  175 A'  176 A'  177 A'  178 A'  179 A'  180 A'  181 A'                 
 18.447
182 A'                                                                         
 --------------------------------------------------------------
 
          Ground-State Mulliken Net Atomic Charges

     Atom                 Charge (a.u.)
  ----------------------------------------
      1 O                    -0.632831
      2 O                    -0.360239
      3 O                    -0.568999
      4 C                     0.061001
      5 C                     0.643739
      6 H                     0.578067
      7 H                     0.279262
  ----------------------------------------
  Sum of atomic charges =     0.000000

 -----------------------------------------------------------------
                    Cartesian Multipole Moments
 -----------------------------------------------------------------
    Charge (ESU x 10^10)
                 0.0000
    Dipole Moment (Debye)
         X       2.0404      Y      -0.2671      Z       0.0000
       Tot       2.0578
    Quadrupole Moments (Debye-Ang)
        XX     -37.1087     XY      -1.6768     YY     -25.6402
        XZ      -0.0000     YZ      -0.0000     ZZ     -26.5853
    Octopole Moments (Debye-Ang^2)
       XXX      -2.9659    XXY       2.5503    XYY       8.8522
       YYY       3.4112    XXZ       0.0000    XYZ      -0.0000
       YYZ      -0.0000    XZZ       0.1308    YZZ       0.4313
       ZZZ       0.0000
    Hexadecapole Moments (Debye-Ang^3)
      XXXX    -291.0932   XXXY      -4.5760   XXYY     -66.1524
      XYYY       1.8939   YYYY    -115.1535   XXXZ      -0.0000
      XXYZ       0.0000   XYYZ      -0.0000   YYYZ       0.0000
      XXZZ     -45.8009   XYZZ       0.4288   YYZZ     -25.7499
      XZZZ      -0.0000   YZZZ       0.0000   ZZZZ     -22.4068
 -----------------------------------------------------------------
 Total job time:  33361.44s(wall), 46334.46s(cpu) 
 Tue Aug 16 00:38:01 2022

        *************************************************************
        *                                                           *
        *  Thank you very much for using Q-Chem.  Have a nice day.  *
        *                                                           *
        *************************************************************


